# vtk DataFile Version 2.0
Unstructured Grid
ASCII
DATASET UNSTRUCTURED_GRID
POINTS 15898 double
-0.0040355 -0.0008255 0
0.0040355 -0.0008255 0
0.0040355 0.0008255 0
-0.0040355 0.0008255 0
-0.0030206 -3.81e-05 0
-0.0029888 -3.81e-05 0
-0.0029888 3.81e-05 0
-0.0030206 3.81e-05 0
-0.0021018 -3.81e-05 0
-0.0021018 3.81e-05 0
-0.0017653 -3.81e-05 0
-0.0017653 3.81e-05 0
-0.0008763 -3.81e-05 0
-0.0008763 3.81e-05 0
-0.0004445 -3.81e-05 0
-0.0004445 3.81e-05 0
0.0004445 -3.81e-05 0
0.0004445 3.81e-05 0
0.0008763 -3.81e-05 0
0.0008763 3.81e-05 0
0.0017653 -3.81e-05 0
0.0017653 3.81e-05 0
0.0021018 -3.81e-05 0
0.0021018 3.81e-05 0
0.0029888 -3.81e-05 0
0.0029888 3.81e-05 0
0.0030206 -3.81e-05 0
0.0030206 3.81e-05 0
0 -0.0008255 0
0 0.0008255 0
0.00201775 -0.0008255 0
-0.00201775 -0.0008255 0
0.00201775 0.0008255 0
0.00100888 -0.0008255 0
-0.00302662 -0.0008255 0
0.00302662 0.0008255 0
-0.00201775 0.0008255 0
0.00302662 -0.0008255 0
-0.00100888 -0.0008255 0
0.00100888 0.0008255 0
-0.00100888 0.0008255 0
-0.00302662 0.0008255 0
-0.0030047 -8.75062e-05 0
-0.0030206 -6.1e-06 0
0.0030206 6.1e-06 0
0.0030047 8.75062e-05 0
0.0030047 -8.75062e-05 0
-0.0030047 8.75062e-05 0
-0.00307032 -2.21e-05 0
0.00307032 2.21e-05 0
-0.00305515 1.6e-05 0
0.00305515 -1.6e-05 0
-0.00307221 8.07215e-05 0
0.00307221 -8.07215e-05 0
-0.00312193 2.05215e-05 0
0.00312193 -2.05215e-05 0
-0.0025453 -3.81e-05 0
-0.0025453 3.81e-05 0
0.0025453 3.81e-05 0
0.0025453 -3.81e-05 0
-0.00306099 -7.83598e-05 0
0.00306099 7.83598e-05 0
-0.00276705 -3.81e-05 0
-0.00276705 3.81e-05 0
0.00276705 3.81e-05 0
0.00276705 -3.81e-05 0
-0.00287792 -3.81e-05 0
-0.00287792 3.81e-05 0
0.00287792 3.81e-05 0
0.00287792 -3.81e-05 0
-0.00293336 -3.81e-05 0
-0.00293336 3.81e-05 0
0.00293336 3.81e-05 0
0.00293336 -3.81e-05 0
-0.00314826 -6.3926e-05 0
-0.00304706 -0.000170388 0
0.00314826 6.3926e-05 0
0.00304706 0.000170388 0
-0.00290564 -0.000124231 0
-0.00290564 0 0
-0.00296108 0 0
-0.00290564 0.000124231 0
0.00290564 0.000124231 0
0.00290564 0 0
0.00296108 0 0
0.00290564 -0.000124231 0
-0.003049 0.000188999 0
0.003049 -0.000188999 0
-0.00193355 3.81e-05 0
-0.00193355 -3.81e-05 0
-0.0006604 -3.81e-05 0
-0.0006604 3.81e-05 0
-0.0013208 3.81e-05 0
-0.0013208 -3.81e-05 0
0 -3.81e-05 0
0 3.81e-05 0
0.0006604 3.81e-05 0
0.0006604 -3.81e-05 0
0.0013208 -3.81e-05 0
0.0013208 3.81e-05 0
0.00193355 3.81e-05 0
0.00193355 -3.81e-05 0
-0.00232355 -3.81e-05 0
-0.00232355 3.81e-05 0
0.00232355 -3.81e-05 0
0.00232355 3.81e-05 0
-0.00265618 -3.81e-05 0
-0.00265618 3.81e-05 0
0.00265618 -3.81e-05 0
0.00265618 3.81e-05 0
-0.00282249 -3.81e-05 0
-0.00282249 3.81e-05 0
-0.00279477 0 0
-0.00285021 0 0
-0.00285021 -9.45461e-05 0
-0.00279477 0.000124231 0
-0.00285021 9.45461e-05 0
-0.00279477 -8.67406e-05 0
-0.00285021 0.000161155 0
-0.00271161 -0.00010191 0
-0.00281036 -0.000176774 0
-0.00293529 0.000228823 0
-0.00276512 0.000228823 0
0.00282249 -3.81e-05 0
0.00282249 3.81e-05 0
0.00285021 0 0
0.00279477 0 0
0.00279477 -0.000124231 0
0.00285021 -9.45461e-05 0
0.00285021 9.45461e-05 0
0.00285021 -0.000161155 0
0.00279477 8.67406e-05 0
0.00271161 0.00010191 0
0.00281036 0.000176774 0
0.00293529 -0.000228823 0
0.00276512 -0.000228823 0
-0.0040355 0 0
0.0040355 0 0
-0.0031906 0.000127865 0
0.0031906 -0.000127865 0
-0.00184943 -3.81e-05 0
-0.00184943 3.81e-05 0
-0.00201768 -3.81e-05 0
-0.00201768 3.81e-05 0
-0.00076835 3.81e-05 0
-0.00076835 -3.81e-05 0
-0.00055245 3.81e-05 0
-0.00055245 -3.81e-05 0
-0.00154305 3.81e-05 0
-0.00154305 -3.81e-05 0
-0.00109855 3.81e-05 0
-0.00109855 -3.81e-05 0
0.00022225 -3.81e-05 0
0.00022225 3.81e-05 0
-0.00022225 -3.81e-05 0
-0.00022225 3.81e-05 0
0.00076835 -3.81e-05 0
0.00076835 3.81e-05 0
0.00055245 -3.81e-05 0
0.00055245 3.81e-05 0
0.00154305 -3.81e-05 0
0.00154305 3.81e-05 0
0.00109855 -3.81e-05 0
0.00109855 3.81e-05 0
0.00184943 -3.81e-05 0
0.00184943 3.81e-05 0
0.00201768 3.81e-05 0
0.00201768 -3.81e-05 0
-0.00243443 -3.81e-05 0
-0.00243443 3.81e-05 0
-0.00221267 3.81e-05 0
-0.00221267 -3.81e-05 0
0.00243443 -3.81e-05 0
0.00243443 3.81e-05 0
0.00221267 3.81e-05 0
0.00221267 -3.81e-05 0
-0.00260074 -3.81e-05 0
-0.00260074 3.81e-05 0
-0.00257302 0 0
-0.00262846 0 0
-0.00262846 -0.000118168 0
-0.00257302 0.000124231 0
-0.00257302 -9.25281e-05 0
-0.00262846 9.45461e-05 0
-0.0025609 -0.000191479 0
-0.00248986 -0.000100605 0
-0.00264686 0.000195519 0
-0.00271161 0.000100352 0
-0.00271161 3.81e-05 0
-0.00271161 -3.81e-05 0
-0.00273933 0 0
-0.00268389 0 0
0.00271161 3.81e-05 0
0.00271161 -3.81e-05 0
0.00268389 0 0
0.00273933 0 0
0.00268389 -0.000124231 0
0.00273933 -9.45461e-05 0
0.00273933 -0.000161155 0
0.00265425 -0.000228823 0
0.00260074 3.81e-05 0
0.00260074 -3.81e-05 0
0.00257302 0 0
0.00262846 0 0
0.00262846 0.000118168 0
0.00257302 -0.000124231 0
0.00262846 -9.45461e-05 0
0.00257302 9.25281e-05 0
0.00262846 -0.000161155 0
0.0025609 0.000191479 0
0.00248986 0.000100605 0
0.00254337 -0.000228823 0
-0.00325009 1.41646e-05 0
0.00325009 -1.41646e-05 0
-0.00180736 -3.81e-05 0
-0.00180736 3.81e-05 0
-0.00178633 -3.46945e-24 0
-0.00182839 -0.000103451 0
-0.00178633 0.000103451 0
-0.00165417 3.81e-05 0
-0.00165417 -3.81e-05 0
-0.00182839 1.63608e-06 0
-0.00178633 -8.09278e-05 0
-0.00182839 8.09278e-05 0
-0.00170974 3.81e-05 0
-0.00170974 -3.81e-05 0
-0.00187336 0 0
-0.0017413 0 0
-0.00189149 3.81e-05 0
-0.00189149 -3.81e-05 0
-0.00191252 4.72761e-06 0
-0.00187046 7.50055e-05 0
-0.00191252 -0.000103451 0
-0.00195701 0 0
-0.00191252 7.45303e-05 0
-0.00185863 0.000143317 0
-0.00187046 -8.09278e-05 0
-0.00197561 3.81e-05 0
-0.00197561 -3.81e-05 0
-0.00189193 0.000113904 0
-0.00199664 4.24397e-06 0
-0.00195458 7.45272e-05 0
-0.00199664 -0.000103451 0
-0.00192098 0.000180353 0
-0.00204124 0 0
-0.00193355 0.000110599 0
-0.00199664 7.45272e-05 0
-0.00195458 -8.09278e-05 0
-0.00205974 3.81e-05 0
-0.00205974 -3.81e-05 0
-0.00191521 0.000143302 0
-0.00188692 0.00016668 0
-0.00197168 0.000153484 0
-0.00183648 0.000198962 0
-0.00188536 0.000219802 0
-0.00197561 0.000110953 0
-0.00208077 4.35113e-06 0
-0.00203871 7.45272e-05 0
-0.00208077 -0.000103451 0
-0.00215724 -3.81e-05 0
-0.00215724 3.81e-05 0
-0.00201768 0.000110954 0
-0.00208077 7.45272e-05 0
-0.00203871 -8.09278e-05 0
-0.00212535 0 0
-0.00205974 0.000110954 0
-0.00212952 7.83882e-05 0
-0.00203871 0.000176305 0
-0.00210238 0.000111292 0
-0.00208072 0.000153768 0
-0.00216707 0.000136997 0
-0.00177237 -0.00015754 0
-0.00173752 -7.83202e-05 0
-0.00187046 -0.000131466 0
-0.00195458 -0.000131466 0
-0.00182854 0.000285337 0
-0.00203871 -0.000131466 0
-0.00196446 0.000255404 0
-0.00218296 8.5479e-05 0
-0.00212468 0.000149425 0
-0.00210945 0.000219895 0
-0.0021608 0.000194113 0
-0.00168196 -8.69941e-05 0
-0.00182427 -0.000155233 0
-0.00191252 -0.000149035 0
-0.00199664 -0.000149035 0
-0.00210326 -0.000182809 0
-0.0018019 -0.000237014 0
-0.001871 -0.000189296 0
-0.00195458 -0.000190603 0
-0.00204066 -0.000195272 0
-0.00168196 0 0
-0.00168196 0.000124425 0
-0.00173752 8.31001e-05 0
-0.00174038 0.000144959 0
-0.0018054 0.00015436 0
-0.00218496 0 0
-0.00212952 -8.308e-05 0
-0.00218496 -8.62124e-05 0
-0.00212238 -0.000134522 0
-0.00218784 -0.00018837 0
-0.00225506 0.000135926 0
-0.00217518 0.000286786 0
-0.0017178 -0.000134273 0
-0.00159861 -0.00010201 0
-0.00167926 0.000225458 0
-0.00176316 0.000216919 0
-0.00226811 -0.00010208 0
-0.00209132 -0.000286311 0
-0.00223634 8.59434e-05 0
-0.00229636 9.19548e-05 0
-0.00226811 3.81e-05 0
-0.00221148 0.000170775 0
-0.00171114 -0.000225515 0
-0.00165 -0.000148439 0
-0.00234403 0.000178113 0
-0.00237899 9.98755e-05 0
-0.00226811 -3.81e-05 0
-0.00224039 0 0
-0.00220986 0.000233953 0
-0.00229583 0 0
-0.00227461 0.00031425 0
-0.00227377 0.000203984 0
-0.00155217 -0.000205066 0
-0.00233379 0.000258663 0
-0.000822325 -3.81e-05 0
-0.000822325 3.81e-05 0
-0.000795337 0 0
-0.000849312 0 0
-0.000849312 -0.000121959 0
-0.000795337 0.000121959 0
-0.000795337 -9.3057e-05 0
-0.000849312 9.3057e-05 0
-0.000777422 -0.000191366 0
-0.000714375 -9.87101e-05 0
-0.000867228 0.000191366 0
-0.000987425 3.81e-05 0
-0.000987425 -3.81e-05 0
-0.000931862 9.94897e-05 0
-0.000714375 3.81e-05 0
-0.000714375 -3.81e-05 0
-0.000687387 0 0
-0.000687387 0.000121959 0
-0.000741362 -4.996e-22 0
-0.000741362 9.3057e-05 0
-0.000741362 0.000157908 0
-0.000800635 0.000188406 0
-0.000658522 0.000223792 0
-0.000829333 0.000293349 0
-0.000737558 0.000238148 0
-0.000606425 3.81e-05 0
-0.000606425 -3.81e-05 0
-0.000633412 0 0
-0.000579437 0.000121959 0
-0.000579437 -3.46945e-24 0
-0.000633412 -0.000116471 0
-0.000633412 9.3057e-05 0
-0.000579437 -9.12255e-05 0
-0.000633413 0.000157908 0
-0.000567202 -0.000187707 0
-0.000498475 -9.89365e-05 0
-0.000550572 0.000223792 0
-0.000498475 -3.81e-05 0
-0.000498475 3.81e-05 0
-0.000471487 0 0
-0.000525463 0 0
-0.000471487 0.000121959 0
-0.000525463 9.3057e-05 0
-0.000525463 0.000157908 0
-0.000442622 0.000223792 0
-0.00143192 3.81e-05 0
-0.00143192 -3.81e-05 0
-0.00120967 3.81e-05 0
-0.00120967 -3.81e-05 0
0.000333375 3.81e-05 0
0.000333375 -3.81e-05 0
0.000111125 3.81e-05 0
0.000111125 -3.81e-05 0
-0.000111125 3.81e-05 0
-0.000111125 -3.81e-05 0
-0.000333375 3.81e-05 0
-0.000333375 -3.81e-05 0
0.000822325 3.81e-05 0
0.000822325 -3.81e-05 0
0.000795337 0 0
0.000849312 0 0
0.000849312 0.000121959 0
0.000795337 -0.000121959 0
0.000795337 9.3057e-05 0
0.000849312 -9.3057e-05 0
0.000777422 0.000191366 0
0.000714375 9.87101e-05 0
0.000867228 -0.000191366 0
0.000987425 -3.81e-05 0
0.000987425 3.81e-05 0
0.000931862 -9.94897e-05 0
0.000714375 -3.81e-05 0
0.000714375 3.81e-05 0
0.000687387 0 0
0.000687387 -0.000121959 0
0.000741362 4.996e-22 0
0.000741362 -9.3057e-05 0
0.000741362 -0.000157908 0
0.000800635 -0.000188406 0
0.000658522 -0.000223792 0
0.000829333 -0.000293349 0
0.000737558 -0.000238148 0
0.000606425 -3.81e-05 0
0.000606425 3.81e-05 0
0.000633412 0 0
0.000579437 -0.000121959 0
0.000579437 3.46945e-24 0
0.000633412 0.000116471 0
0.000633412 -9.3057e-05 0
0.000579437 9.12255e-05 0
[...]
POINT_DATA 15898
SCALARS Eabs float 1
LOOKUP_TABLE jet
0.000000
0.000000
0.000000
0.000000
0.000000
0.000000
0.000000
0.000000
0.000000
0.000000
0.000000
0.000000
0.000000
0.000000
0.000000
0.000000
0.000000
0.000000
0.000000
0.000000
0.000000
0.000000
0.000000
0.000000
0.000000
0.000000
0.000000
0.000000
0.000000
0.000000
0.000000
0.000000
0.000000
0.000000
0.000000
0.000000
0.000000
0.000000
0.000000
0.000000
0.000000
0.000000
5776.270933
0.000000
0.000000
5908.476350
5912.102574
5779.847283
3807.898346
4059.192683
2833.309990
3015.760384
5617.826804
5937.602676
5781.990541
6204.489763
23153.745267
23153.826890
22412.717298
22412.796548
5313.685283
5596.076216
18639.350368
18639.182443
18263.910374
18263.796402
12679.949279
12679.328921
12528.261704
12527.622080
8318.261744
8316.856309
8264.122064
8262.682658
6753.658478
8596.272048
7256.446444
8927.774394
12091.703157
10484.574920
5122.561037
12093.908697
12040.601131
10376.886752
5091.485031
12042.840240
8981.772696
9327.729095
0.000000
0.000000
0.000000
0.000000
23449.475277
23449.449980
29897.465584
29897.878033
0.000000
0.000000
24016.895394
24016.896397
0.000000
0.000000
18527.356039
18527.833836
17747.551308
17747.087682
22042.005532
22041.997962
21457.416636
21457.444021
16022.813915
16022.460375
17495.853827
14446.796164
14632.216224
17176.010859
14631.533088
17256.128787
14975.498962
20119.787047
16496.156939
12383.156131
17579.251297
15760.177156
15760.544460
14235.596734
17172.158568
16886.369268
14445.779572
14446.503730
14821.700643
16952.008549
19656.190421
16263.232614
12461.034268
17276.271260
10688.344233
9993.407645
7793.640542
8389.840200
0.000000
0.000000
0.000000
0.000000
0.000000
0.000000
0.000000
0.000000
18802.912548
18803.318941
18714.437432
18713.984742
23922.217634
23922.468413
23770.113806
23771.292470
0.000000
0.000000
0.000000
0.000000
19056.464298
19056.926823
19354.895652
19354.527226
0.000000
0.000000
0.000000
0.000000
21995.183879
21995.425082
12487.868164
12485.544986
21179.637365
21179.404097
11894.282966
11896.495952
22881.299167
22881.335212
23283.471028
22718.807307
21683.306227
22111.023523
22494.694120
21949.637160
21215.129505
22189.026675
20441.864425
20132.534637
20632.502264
20632.574797
19845.221864
21575.899887
20148.025237
20147.951184
21034.344282
19409.328772
20108.887039
18916.016904
18471.604015
19340.283997
22210.004735
22210.036182
22568.469124
22082.844626
21082.555003
21434.473152
21339.626918
21805.731394
20572.133778
20552.778526
21419.814752
19960.607446
7952.732554
8563.034052
0.000000
0.000000
1126.810569
4390.065771
5642.096007
12672.729152
12673.965746
208.607756
4178.637173
3018.893843
8232.249950
8239.069494
33.266172
4768.996192
0.000000
0.000000
7.096173
2178.277607
3458.360321
7.783043
1971.678151
5818.151317
2514.886879
0.000000
0.000000
4077.470127
36.427654
1967.388670
3715.982033
6734.707079
229.065579
3770.432135
2138.217368
2303.640774
0.000000
0.000000
5295.174473
6432.140226
5813.648801
8278.853210
8204.574358
3920.369067
1097.872831
2576.458505
5579.638955
8112.321557
8120.336419
4375.030224
3648.793158
2990.557035
4661.263098
5294.478397
6958.609283
7634.859465
6955.172504
7929.209961
11123.290891
8639.960988
7046.541625
5121.423613
4775.282646
10275.672644
5795.667905
8925.455581
10969.754200
9457.185894
10670.893229
11939.357750
11285.253087
6992.304136
5548.584317
5866.491364
9618.225942
9970.939046
7424.780447
7107.523673
8297.136593
10460.564210
11962.398617
7260.397412
9519.281322
7445.835055
10306.330579
7164.778981
11107.851895
8860.233971
12900.822667
15349.548973
13180.782723
10291.976086
16094.844281
13436.031598
10564.529702
15857.998576
11163.848022
14185.982314
17144.285887
15869.951167
13680.271803
12358.928179
13897.876124
18472.641212
20072.893739
15868.915817
14276.097864
14045.758189
17362.403723
15524.674717
16147.122173
17685.937385
17490.953964
0.000000
0.000000
97.648145
862.729772
6276.372064
4870.463992
3362.548316
4681.728083
7335.955232
2977.066674
9447.106209
12564.074694
12562.506233
9640.042941
0.000000
0.000000
1.235525
3984.088023
10.717051
2827.193338
5705.175244
7642.815014
7792.703363
10431.698523
8236.607501
0.000000
0.000000
1.529404
4695.398731
13.546294
3894.756655
2781.921790
3073.569994
5696.092066
7786.461447
5106.437909
9349.163504
0.000000
0.000000
1090.648861
123.451374
7701.450234
3995.166433
7588.433914
12854.846925
22308.170115
22308.279272
22259.805999
22259.639772
16046.836919
16047.123130
28436.201916
28435.909067
28347.701677
28347.091682
15893.047441
15889.288721
0.000000
0.000000
101.895109
900.216238
6651.615709
5206.518468
3592.723835
4953.516953
7870.283650
3201.510548
10017.460674
13062.300551
13060.733486
10085.389929
0.000000
0.000000
1.305145
4276.726146
11.185096
3038.185900
6132.349960
8177.449310
8336.116721
11150.909672
8855.663489
0.000000
0.000000
1.558047
4938.725365
13.648488
4149.202001
2961.923173
3233.030929
6066.787557
8184.227453
5266.847231
9796.532208
0.000000
0.000000
1098.857576
124.366366
7888.694912
4142.747654
7889.129040
13207.006719
12763.623135
12762.379305
22733.848270
22733.742686
22908.626004
22908.790295
0.000000
0.000000
1129.394810
5542.792402
4252.110598
8260.168644
8266.994891
209.067717
2927.722033
4114.282136
4783.533627
33.308670
0.000000
0.000000
6.958863
2078.539382
3251.659920
7.298598
1854.134273
5562.726797
2399.472685
0.000000
0.000000
3857.851505
34.550195
1832.386439
3450.939237
6315.103263
217.380579
3525.882305
1985.750353
2145.605247
0.000000
0.000000
4973.466493
6088.465261
5405.707374
7951.344414
7760.552268
3643.376020
1041.931394
2400.559358
5227.161716
7705.504525
7713.108597
4065.922857
3423.594006
2786.033501
4426.283340
4942.900639
6577.058169
7100.669246
6534.488578
7411.839926
10517.278813
7023.414280
4878.948874
4448.538127
9853.615393
5394.100532
8309.825272
10414.504632
8892.621540
9985.426574
11250.238467
11317.320705
8478.507669
5214.992510
5448.160213
9005.802435
6759.072651
6623.142933
7715.631203
7058.079283
9618.810052
10522.937989
11967.770373
7232.687908
9420.650237
7240.817763
9809.354155
6769.421730
10546.811733
8335.547983
12194.005086
14620.793836
12397.063604
16239.878726
10237.271608
13362.898219
10343.525412
15131.990237
10409.227102
13516.240594
16389.325820
15160.690856
12969.605617
12214.416833
13934.605870
17679.701598
19270.495351
15159.699166
13622.853835
13281.684883
16611.406614
14732.949036
15369.768315
17854.134239
16700.844357
20556.710627
20556.385866
21513.278600
19749.862372
20625.596764
19259.276166
18221.715886
22859.272964
22859.119169
23272.130792
22683.591582
21652.640112
22483.761857
21614.689318
21123.111988
20090.080053
18961.058678
20283.388352
22068.799092
22068.948130
21871.053933
22497.094910
20871.667359
21734.475028
20889.207681
19322.177666
19742.539543
19742.855116
18944.673279
20689.350418
19825.773646
18464.603262
17429.121512
19208.365203
18767.759917
16107.361063
16106.619107
14490.612778
17622.116778
17316.250252
14663.057188
15040.662925
17824.181583
9706.809927
9901.240443
12430.614749
19536.781323
16003.919853
16004.730041
17525.593125
17216.842847
14383.680618
14689.634569
14552.629265
17276.275151
14357.901844
9658.547973
17479.577457
20290.049770
8125.937424
8132.023135
10351.637521
5064.503755
0.000000
6398.250951
20857.372801
20857.152130
20041.632370
21187.658762
21824.043836
20868.332044
20721.485775
22489.119794
19530.718788
19080.444197
20137.426080
23170.712069
23170.680345
22999.850764
23579.632290
22400.051014
22228.023254
21437.250641
20908.646586
23145.939159
23146.032041
23567.175509
22460.438264
22962.919008
21922.059442
22212.472183
22771.412406
20821.548007
20289.314129
21895.099063
19980.582397
20786.810002
20787.086161
21764.084477
19961.342518
20454.402238
20454.689630
22405.164328
21992.961188
18381.501092
18793.173017
18586.437177
22068.426767
18299.699937
12304.418297
22517.457381
25920.759828
10369.401902
10375.007319
13218.340121
6457.597524
10869.738698
14365.461975
15695.593634
19378.836031
12535.812660
20139.913140
16483.885245
29544.154194
29544.500850
30073.047314
28534.737144
29330.105254
27971.821506
28321.756778
29033.219849
26381.635005
25920.127109
27371.983071
28614.772484
26567.495275
26567.764160
27816.282882
25520.039339
26442.132370
26442.949037
25380.875769
24446.511198
27708.584511
26530.158139
26825.218610
24723.001322
25894.544327
28617.047532
23322.880626
20243.603067
29498.200736
29498.692464
29262.227196
30049.873256
10255.337247
10254.470928
6396.718593
10670.149244
13086.020209
14767.591922
14184.169087
9494.312812
16650.700198
20239.391417
12496.190705
18270.608432
15344.696616
16753.209056
15490.674692
20499.247955
16745.057125
19702.515993
17515.973398
17780.944126
14972.825681
21011.936663
23100.011786
20289.495005
20291.395970
18222.475688
22246.969179
16594.144819
16594.926599
18145.872718
17852.090786
14930.023025
15281.387683
15127.842095
17902.460578
15000.105107
10105.591174
18137.519507
20940.303452
8472.241982
8478.529468
10771.532391
5281.023892
0.000000
6870.902687
16274.301814
16275.045244
17836.538812
17495.471033
14622.661130
14768.914780
15107.681898
17998.510114
23672.929270
23672.985404
24121.328930
22910.186368
23469.941733
22330.388560
22676.381921
23281.349191
21107.833461
20684.227576
21956.484281
23072.376502
21198.382894
21198.625490
22212.790628
20343.570831
19650.120521
21537.588638
20786.823053
21448.815954
19361.799329
19763.683606
21445.195267
21444.954973
20617.130036
22424.886237
21506.746535
20111.757744
19713.627047
17569.822895
20912.977582
16050.295321
19060.994552
23763.534938
23763.459707
23603.637623
22538.420784
24166.954234
23350.742440
22455.746839
21890.637462
20598.800083
19638.770686
21000.639659
9021.273605
9313.837744
12190.112084
0.000000
20764.403779
18048.372488
20010.365989
10430.254576
11446.335172
12085.654675
9508.465036
12622.806511
10795.016330
9951.669704
9644.423652
21634.717243
18992.215514
0.000000
25624.426679
24266.389638
26748.296681
27401.789461
10521.649982
21204.512609
13233.262152
11378.362834
10666.441158
18035.245891
17876.927803
9689.001116
10681.811259
11304.660166
8864.191632
15735.880770
16732.112947
12215.889923
12856.467773
19080.937393
10369.578122
23221.567098
22552.694017
12908.829244
13671.746797
0.000000
13919.472985
23933.220150
13480.595017
14778.045254
12144.713456
15176.180051
12359.896491
0.000000
11822.270259
15166.615777
0.000000
0.000000
0.000000
10335.572085
24298.976620
0.000000
0.000000
9526.804098
15084.998301
11763.090448
17777.007582
25317.959229
19280.504831
12489.411403
15769.229434
12766.566342
11011.622097
18366.464347
10327.048095
15369.855885
18342.572178
17712.283585
10341.569759
11901.190328
9884.047932
17429.163632
13531.999506
22535.025485
14247.822566
18080.882581
12401.231306
11071.533716
17819.814727
18723.970742
13517.836773
10241.641811
10688.916096
11959.999770
9048.156372
13781.884845
9968.439230
12631.655230
9732.697886
11898.848102
10098.193838
8910.368577
10749.990297
9726.235937
11683.986335
12915.197066
12689.792211
9799.322288
12778.634564
10155.624449
15365.893643
13032.623310
18096.216993
14143.967621
17581.882653
11620.145439
0.000000
16583.588770
17274.398446
17463.562544
17071.534731
18271.551140
17518.656193
12182.682926
14739.279679
11996.692981
10645.555620
12906.055110
8553.135357
10944.290698
12915.262368
9149.165071
17107.934185
11022.765278
7934.330001
18812.985158
14278.625128
10840.396672
16054.508385
13332.276196
15238.536344
12737.997452
14444.549774
13828.979399
14277.099480
11711.368860
8908.627150
10286.739383
13457.161423
17058.746736
17984.169535
14380.445066
8897.269488
10841.191241
14166.831533
12526.453226
12965.172609
16412.112303
13582.732465
14766.277422
15744.475484
13150.675145
14036.329561
13337.958325
0.000000
8568.983444
6728.593515
9570.454144
8995.048066
5035.621664
0.000000
12115.618485
11351.044388
9061.892419
12413.894696
8578.160592
13664.327315
0.000000
4422.655711
0.000000
7592.160297
5014.857051
3470.005959
0.000000
7122.274679
3771.858365
0.000000
4060.856429
7760.952564
10202.412802
4542.637925
12200.781152
0.000000
8172.219111
5853.467573
8205.124315
8845.664717
20040.936586
18388.663946
17874.049591
15619.256218
16671.750375
14308.638853
15950.516914
13979.720084
16725.674577
11042.971885
14499.489594
8594.739181
6819.221741
12553.833242
10408.104975
9941.158712
11196.294058
11893.613600
10175.589231
8874.502666
10125.794753
10526.406398
10075.639497
24758.123031
18293.974781
21753.874131
21161.948823
17115.648871
18576.909119
14601.663148
15089.511505
19467.102918
15932.725872
14741.855217
0.000000
9364.052332
11948.499239
14430.610048
6979.474352
19662.207331
17230.480005
14289.938318
13595.556094
7780.535426
0.000000
11501.221909
10409.348108
8181.335373
11032.077978
8972.458820
10403.442353
0.000000
11313.546914
11228.507776
10847.933226
8280.057300
10601.896535
9310.148752
22363.900581
13764.671159
19332.302980
15454.055073
16593.706124
13102.333378
9869.960690
0.000000
12427.145441
13298.658443
7031.783639
16049.591321
9084.485647
8933.257784
11256.867431
10037.123092
9702.435070
0.000000
5219.410324
7013.801751
8519.751485
6419.522098
0.000000
8208.108121
8558.966333
7246.246894
3870.653658
7548.619779
7899.791557
6251.815969
18781.598644
15185.828483
16131.059523
12814.117054
9877.511100
0.000000
12281.375572
13266.215546
6930.714828
15848.142715
9433.034961
8693.415058
11447.439919
10413.067893
9867.345530
0.000000
5337.459141
7280.525469
9089.886936
6905.296735
0.000000
8844.944110
9112.411793
7666.092504
4130.708853
8136.341298
8288.999172
6660.608157
15753.341409
15606.508332
12636.469991
10710.688781
0.000000
5618.166619
7001.792858
9263.840092
0.000000
0.000000
15790.283535
10747.244550
14635.992604
12238.872547
15469.991239
0.000000
6682.592044
16377.783101
7208.887195
13517.026222
0.000000
5595.073192
8209.203843
11249.128591
14082.582384
11373.184121
14026.794075
9640.150037
10900.432316
10671.646247
11986.234693
11984.863161
11168.819627
11527.819378
9282.746086
15092.673684
9200.812460
12323.725250
14348.210337
17185.259772
0.000000
10120.771760
10227.465437
0.000000
12843.449080
5471.634204
14306.069065
15568.965824
17634.883162
5552.208878
0.000000
9763.417171
5132.344077
12292.243094
4902.949581
8035.885739
0.000000
14000.797615
8765.992602
9254.276498
11439.431015
9696.473897
10515.063167
7545.309855
0.000000
4179.842229
4734.195988
0.000000
4552.812707
13800.791467
12261.525552
0.000000
7519.004495
10863.006001
6483.520491
10709.933323
9231.059809
0.000000
5436.381768
5005.045159
7519.455629
12315.328018
11025.939748
0.000000
8193.562112
5794.242683
9259.502212
11456.661069
13063.937377
11620.921185
10456.380151
0.000000
7846.928882
5480.225747
8637.331623
12225.460448
10596.506706
9018.850306
5767.661707
2741.968479
2918.853350
3596.897063
0.000000
2785.627342
2736.442381
0.000000
2709.165288
3090.425185
0.000000
5654.400847
9266.317052
8996.103325
8489.742250
9625.964868
7589.654282
3901.754846
11823.377268
11100.876979
12617.221031
14472.701318
16087.879180
14086.386579
17720.463291
10169.760258
17667.786217
0.000000
13622.976392
10354.048256
0.000000
0.000000
3680.498623
5111.193752
4258.711708
4102.223603
7123.229654
0.000000
7577.542489
3601.607563
2815.333001
4614.330861
0.000000
7628.920608
4681.219794
9887.616843
7568.713751
14015.163390
5951.628971
11886.564891
0.000000
4350.057239
3415.082475
3644.845352
6804.802940
0.000000
3521.878342
4348.649788
0.000000
4512.695509
8074.302946
11403.072169
14451.190417
8543.748926
0.000000
4219.480938
3351.741693
3616.209563
6795.769731
0.000000
3543.088621
4181.016524
0.000000
4302.698919
7795.279119
10973.788206
13904.183075
9076.528796
0.000000
4200.861718
0.000000
0.000000
5013.649106
5425.149765
8225.016060
10653.043122
5551.489467
14838.100802
14203.175165
0.000000
10057.397943
5236.358070
9529.770777
0.000000
4859.114482
14138.080528
12076.989744
11088.653114
8076.218024
10517.858024
7831.335161
10630.624138
5048.007952
11675.809149
8064.857320
0.000000
2418.049027
2386.979855
0.000000
3106.839676
2348.034401
2717.629980
0.000000
5607.945323
0.000000
3167.971359
10703.769537
10036.496636
9911.848126
2505.562136
5889.380278
8352.387110
3129.776855
6785.104965
9068.444380
10963.606137
9593.502942
6765.812301
7568.149900
0.000000
4332.097701
5299.890059
3669.744616
2313.489941
5860.098477
6572.953141
0.000000
3677.808692
6443.218015
8545.975773
3762.199010
9018.086856
12993.556094
16445.121049
16516.144289
8412.931069
8287.863469
9217.269121
0.000000
7446.866164
9029.828166
8934.526567
9623.129525
0.000000
8005.419072
0.000000
5202.588612
9579.400932
3862.133413
2924.730739
0.000000
5281.595240
9792.915870
10228.401530
8087.192126
7574.973764
5579.779385
4493.618650
0.000000
2853.269916
3187.461475
6253.080945
0.000000
0.000000
4893.728674
0.000000
4007.948052
0.000000
3062.903862
0.000000
3655.116563
0.000000
3997.192725
5536.593697
14545.750573
16537.495682
9782.409112
13178.669197
5869.202560
5960.936456
9285.073242
10112.623509
10554.066393
10892.523577
10412.779587
9610.969554
11713.264743
11934.870142
13461.766768
10110.262895
9113.176547
11720.341572
13363.590540
14386.748737
16303.168839
15575.827339
7929.673816
5047.800512
16761.657604
19806.061161
13673.189087
21948.545292
10133.194757
0.000000
10853.403082
8110.273240
6127.734419
3995.046503
3411.441254
17372.095312
20953.459531
22352.786553
21970.763484
20582.763266
19598.526933
17769.170163
17093.572879
14243.199428
16969.226421
10690.002022
15257.862927
8613.025253
8735.789320
9221.933704
10148.360795
9706.303066
9492.878219
9659.410657
8202.248878
7709.516986
8505.026543
9267.204435
9290.293769
9516.257760
9943.131731
9821.348706
9682.565747
9439.729702
8769.197371
7914.732090
8839.424607
9058.640799
3831.641407
0.000000
3798.393810
7593.797429
7934.323908
5246.939805
7388.606004
6941.997609
8551.730420
8329.388421
7136.212053
0.000000
5175.878110
5205.736354
2583.773897
3021.452900
0.000000
2389.347188
3071.502239
5970.620387
7949.366240
9634.933769
10445.409874
9727.760260
4350.628788
3266.001261
5407.220363
0.000000
2554.102280
2394.100334
2327.995615
0.000000
5910.231309
6443.287525
6764.465069
3783.631236
5838.878562
8427.497553
0.000000
0.000000
7247.217299
6084.678985
6010.939913
8624.175650
7993.594060
6672.506450
5749.869754
8328.771095
3503.542885
8448.508511
0.000000
0.000000
2651.268013
5094.639709
3432.883899
2639.901124
5492.796529
0.000000
6393.652475
12602.982631
0.000000
4298.588100
3508.768757
6924.058774
9875.437299
9212.131493
7526.176668
10560.283915
10334.583796
9946.342868
10460.387999
9085.783343
9708.978309
9296.238322
7035.002797
9904.126570
9905.095261
9541.163482
9881.757647
8557.940080
3164.939830
0.000000
2673.539270
4502.929549
2250.614011
11535.895182
8775.975059
11223.959398
5713.241518
0.000000
0.000000
4347.365910
13929.492849
0.000000
7676.745077
10514.079233
4085.155008
10680.989520
7183.879785
3719.878825
0.000000
6780.016668
2576.933924
8476.632292
4149.878350
9042.032519
10064.081053
7729.682934
7528.917852
0.000000
6846.968063
9601.371910
10848.866620
12271.806738
9408.220716
11299.684681
12565.960690
14928.698180
14542.305092
16730.431472
5742.523342
7831.728736
8361.902730
5692.662295
6466.941014
8317.010741
4481.451819
6035.647731
6032.021009
2988.022100
0.000000
3020.903365
9038.116302
8003.765399
5482.452353
6887.412272
5377.139660
7090.402608
0.000000
6403.243913
2761.469882
5376.584176
2050.359714
7033.398053
6507.691988
6296.399394
7337.390528
6472.695030
0.000000
7160.046340
3507.818543
5411.716070
8095.228216
4061.351444
7323.979504
5903.973152
9862.514551
5590.664351
8863.944915
4666.841310
9482.154908
3642.998800
3609.666379
0.000000
2822.626438
1809.599768
0.000000
1753.769860
1836.034704
0.000000
982.014347
1102.405498
1054.436932
2225.865418
0.000000
2068.643992
3652.531549
1865.147757
0.000000
7281.310749
9220.560521
7831.052777
5957.051833
0.000000
3771.624429
3709.243342
10488.593965
10069.056645
8554.596198
9367.053238
3795.619097
8286.286059
8796.166878
8678.168177
9188.300656
9648.020141
9901.770330