# vtk DataFile Version 2.0
Unstructured Grid
ASCII
DATASET UNSTRUCTURED_GRID
POINTS 15898 double
-0.0040355 -0.0008255 0
0.0040355 -0.0008255 0
0.0040355 0.0008255 0
-0.0040355 0.0008255 0
-0.0030206 -3.81e-05 0
-0.0029888 -3.81e-05 0
-0.0029888 3.81e-05 0
-0.0030206 3.81e-05 0
-0.0021018 -3.81e-05 0
-0.0021018 3.81e-05 0
-0.0017653 -3.81e-05 0
-0.0017653 3.81e-05 0
-0.0008763 -3.81e-05 0
-0.0008763 3.81e-05 0
-0.0004445 -3.81e-05 0
-0.0004445 3.81e-05 0
0.0004445 -3.81e-05 0
0.0004445 3.81e-05 0
0.0008763 -3.81e-05 0
0.0008763 3.81e-05 0
0.0017653 -3.81e-05 0
0.0017653 3.81e-05 0
0.0021018 -3.81e-05 0
0.0021018 3.81e-05 0
0.0029888 -3.81e-05 0
0.0029888 3.81e-05 0
0.0030206 -3.81e-05 0
0.0030206 3.81e-05 0
0 -0.0008255 0
0 0.0008255 0
0.00201775 -0.0008255 0
-0.00201775 -0.0008255 0
0.00201775 0.0008255 0
0.00100888 -0.0008255 0
-0.00302662 -0.0008255 0
0.00302662 0.0008255 0
-0.00201775 0.0008255 0
0.00302662 -0.0008255 0
-0.00100888 -0.0008255 0
0.00100888 0.0008255 0
-0.00100888 0.0008255 0
-0.00302662 0.0008255 0
-0.0030047 -8.75062e-05 0
-0.0030206 -6.1e-06 0
0.0030206 6.1e-06 0
0.0030047 8.75062e-05 0
0.0030047 -8.75062e-05 0
-0.0030047 8.75062e-05 0
-0.00307032 -2.21e-05 0
0.00307032 2.21e-05 0
-0.00305515 1.6e-05 0
0.00305515 -1.6e-05 0
-0.00307221 8.07215e-05 0
0.00307221 -8.07215e-05 0
-0.00312193 2.05215e-05 0
0.00312193 -2.05215e-05 0
-0.0025453 -3.81e-05 0
-0.0025453 3.81e-05 0
0.0025453 3.81e-05 0
0.0025453 -3.81e-05 0
-0.00306099 -7.83598e-05 0
0.00306099 7.83598e-05 0
-0.00276705 -3.81e-05 0
-0.00276705 3.81e-05 0
0.00276705 3.81e-05 0
0.00276705 -3.81e-05 0
-0.00287792 -3.81e-05 0
-0.00287792 3.81e-05 0
0.00287792 3.81e-05 0
0.00287792 -3.81e-05 0
-0.00293336 -3.81e-05 0
-0.00293336 3.81e-05 0
0.00293336 3.81e-05 0
0.00293336 -3.81e-05 0
-0.00314826 -6.3926e-05 0
-0.00304706 -0.000170388 0
0.00314826 6.3926e-05 0
0.00304706 0.000170388 0
-0.00290564 -0.000124231 0
-0.00290564 0 0
-0.00296108 0 0
-0.00290564 0.000124231 0
0.00290564 0.000124231 0
0.00290564 0 0
0.00296108 0 0
0.00290564 -0.000124231 0
-0.003049 0.000188999 0
0.003049 -0.000188999 0
-0.00193355 3.81e-05 0
-0.00193355 -3.81e-05 0
-0.0006604 -3.81e-05 0
-0.0006604 3.81e-05 0
-0.0013208 3.81e-05 0
-0.0013208 -3.81e-05 0
0 -3.81e-05 0
0 3.81e-05 0
0.0006604 3.81e-05 0
0.0006604 -3.81e-05 0
0.0013208 -3.81e-05 0
0.0013208 3.81e-05 0
0.00193355 3.81e-05 0
0.00193355 -3.81e-05 0
-0.00232355 -3.81e-05 0
-0.00232355 3.81e-05 0
0.00232355 -3.81e-05 0
0.00232355 3.81e-05 0
-0.00265618 -3.81e-05 0
-0.00265618 3.81e-05 0
0.00265618 -3.81e-05 0
0.00265618 3.81e-05 0
-0.00282249 -3.81e-05 0
-0.00282249 3.81e-05 0
-0.00279477 0 0
-0.00285021 0 0
-0.00285021 -9.45461e-05 0
-0.00279477 0.000124231 0
-0.00285021 9.45461e-05 0
-0.00279477 -8.67406e-05 0
-0.00285021 0.000161155 0
-0.00271161 -0.00010191 0
-0.00281036 -0.000176774 0
-0.00293529 0.000228823 0
-0.00276512 0.000228823 0
0.00282249 -3.81e-05 0
0.00282249 3.81e-05 0
0.00285021 0 0
0.00279477 0 0
0.00279477 -0.000124231 0
0.00285021 -9.45461e-05 0
0.00285021 9.45461e-05 0
0.00285021 -0.000161155 0
0.00279477 8.67406e-05 0
0.00271161 0.00010191 0
0.00281036 0.000176774 0
0.00293529 -0.000228823 0
0.00276512 -0.000228823 0
-0.0040355 0 0
0.0040355 0 0
-0.0031906 0.000127865 0
0.0031906 -0.000127865 0
-0.00184943 -3.81e-05 0
-0.00184943 3.81e-05 0
-0.00201768 -3.81e-05 0
-0.00201768 3.81e-05 0
-0.00076835 3.81e-05 0
-0.00076835 -3.81e-05 0
-0.00055245 3.81e-05 0
-0.00055245 -3.81e-05 0
-0.00154305 3.81e-05 0
-0.00154305 -3.81e-05 0
-0.00109855 3.81e-05 0
-0.00109855 -3.81e-05 0
0.00022225 -3.81e-05 0
0.00022225 3.81e-05 0
-0.00022225 -3.81e-05 0
-0.00022225 3.81e-05 0
0.00076835 -3.81e-05 0
0.00076835 3.81e-05 0
0.00055245 -3.81e-05 0
0.00055245 3.81e-05 0
0.00154305 -3.81e-05 0
0.00154305 3.81e-05 0
0.00109855 -3.81e-05 0
0.00109855 3.81e-05 0
0.00184943 -3.81e-05 0
0.00184943 3.81e-05 0
0.00201768 3.81e-05 0
0.00201768 -3.81e-05 0
-0.00243443 -3.81e-05 0
-0.00243443 3.81e-05 0
-0.00221267 3.81e-05 0
-0.00221267 -3.81e-05 0
0.00243443 -3.81e-05 0
0.00243443 3.81e-05 0
0.00221267 3.81e-05 0
0.00221267 -3.81e-05 0
-0.00260074 -3.81e-05 0
-0.00260074 3.81e-05 0
-0.00257302 0 0
-0.00262846 0 0
-0.00262846 -0.000118168 0
-0.00257302 0.000124231 0
-0.00257302 -9.25281e-05 0
-0.00262846 9.45461e-05 0
-0.0025609 -0.000191479 0
-0.00248986 -0.000100605 0
-0.00264686 0.000195519 0
-0.00271161 0.000100352 0
-0.00271161 3.81e-05 0
-0.00271161 -3.81e-05 0
-0.00273933 0 0
-0.00268389 0 0
0.00271161 3.81e-05 0
0.00271161 -3.81e-05 0
0.00268389 0 0
0.00273933 0 0
0.00268389 -0.000124231 0
0.00273933 -9.45461e-05 0
0.00273933 -0.000161155 0
0.00265425 -0.000228823 0
0.00260074 3.81e-05 0
0.00260074 -3.81e-05 0
0.00257302 0 0
0.00262846 0 0
0.00262846 0.000118168 0
0.00257302 -0.000124231 0
0.00262846 -9.45461e-05 0
0.00257302 9.25281e-05 0
0.00262846 -0.000161155 0
0.0025609 0.000191479 0
0.00248986 0.000100605 0
0.00254337 -0.000228823 0
-0.00325009 1.41646e-05 0
0.00325009 -1.41646e-05 0
-0.00180736 -3.81e-05 0
-0.00180736 3.81e-05 0
-0.00178633 -3.46945e-24 0
-0.00182839 -0.000103451 0
-0.00178633 0.000103451 0
-0.00165417 3.81e-05 0
-0.00165417 -3.81e-05 0
-0.00182839 1.63608e-06 0
-0.00178633 -8.09278e-05 0
-0.00182839 8.09278e-05 0
-0.00170974 3.81e-05 0
-0.00170974 -3.81e-05 0
-0.00187336 0 0
-0.0017413 0 0
-0.00189149 3.81e-05 0
-0.00189149 -3.81e-05 0
-0.00191252 4.72761e-06 0
-0.00187046 7.50055e-05 0
-0.00191252 -0.000103451 0
-0.00195701 0 0
-0.00191252 7.45303e-05 0
-0.00185863 0.000143317 0
-0.00187046 -8.09278e-05 0
-0.00197561 3.81e-05 0
-0.00197561 -3.81e-05 0
-0.00189193 0.000113904 0
-0.00199664 4.24397e-06 0
-0.00195458 7.45272e-05 0
-0.00199664 -0.000103451 0
-0.00192098 0.000180353 0
-0.00204124 0 0
-0.00193355 0.000110599 0
-0.00199664 7.45272e-05 0
-0.00195458 -8.09278e-05 0
-0.00205974 3.81e-05 0
-0.00205974 -3.81e-05 0
-0.00191521 0.000143302 0
-0.00188692 0.00016668 0
-0.00197168 0.000153484 0
-0.00183648 0.000198962 0
-0.00188536 0.000219802 0
-0.00197561 0.000110953 0
-0.00208077 4.35113e-06 0
-0.00203871 7.45272e-05 0
-0.00208077 -0.000103451 0
-0.00215724 -3.81e-05 0
-0.00215724 3.81e-05 0
-0.00201768 0.000110954 0
-0.00208077 7.45272e-05 0
-0.00203871 -8.09278e-05 0
-0.00212535 0 0
-0.00205974 0.000110954 0
-0.00212952 7.83882e-05 0
-0.00203871 0.000176305 0
-0.00210238 0.000111292 0
-0.00208072 0.000153768 0
-0.00216707 0.000136997 0
-0.00177237 -0.00015754 0
-0.00173752 -7.83202e-05 0
-0.00187046 -0.000131466 0
-0.00195458 -0.000131466 0
-0.00182854 0.000285337 0
-0.00203871 -0.000131466 0
-0.00196446 0.000255404 0
-0.00218296 8.5479e-05 0
-0.00212468 0.000149425 0
-0.00210945 0.000219895 0
-0.0021608 0.000194113 0
-0.00168196 -8.69941e-05 0
-0.00182427 -0.000155233 0
-0.00191252 -0.000149035 0
-0.00199664 -0.000149035 0
-0.00210326 -0.000182809 0
-0.0018019 -0.000237014 0
-0.001871 -0.000189296 0
-0.00195458 -0.000190603 0
-0.00204066 -0.000195272 0
-0.00168196 0 0
-0.00168196 0.000124425 0
-0.00173752 8.31001e-05 0
-0.00174038 0.000144959 0
-0.0018054 0.00015436 0
-0.00218496 0 0
-0.00212952 -8.308e-05 0
-0.00218496 -8.62124e-05 0
-0.00212238 -0.000134522 0
-0.00218784 -0.00018837 0
-0.00225506 0.000135926 0
-0.00217518 0.000286786 0
-0.0017178 -0.000134273 0
-0.00159861 -0.00010201 0
-0.00167926 0.000225458 0
-0.00176316 0.000216919 0
-0.00226811 -0.00010208 0
-0.00209132 -0.000286311 0
-0.00223634 8.59434e-05 0
-0.00229636 9.19548e-05 0
-0.00226811 3.81e-05 0
-0.00221148 0.000170775 0
-0.00171114 -0.000225515 0
-0.00165 -0.000148439 0
-0.00234403 0.000178113 0
-0.00237899 9.98755e-05 0
-0.00226811 -3.81e-05 0
-0.00224039 0 0
-0.00220986 0.000233953 0
-0.00229583 0 0
-0.00227461 0.00031425 0
-0.00227377 0.000203984 0
-0.00155217 -0.000205066 0
-0.00233379 0.000258663 0
-0.000822325 -3.81e-05 0
-0.000822325 3.81e-05 0
-0.000795337 0 0
-0.000849312 0 0
-0.000849312 -0.000121959 0
-0.000795337 0.000121959 0
-0.000795337 -9.3057e-05 0
-0.000849312 9.3057e-05 0
-0.000777422 -0.000191366 0
-0.000714375 -9.87101e-05 0
-0.000867228 0.000191366 0
-0.000987425 3.81e-05 0
-0.000987425 -3.81e-05 0
-0.000931862 9.94897e-05 0
-0.000714375 3.81e-05 0
-0.000714375 -3.81e-05 0
-0.000687387 0 0
-0.000687387 0.000121959 0
-0.000741362 -4.996e-22 0
-0.000741362 9.3057e-05 0
-0.000741362 0.000157908 0
-0.000800635 0.000188406 0
-0.000658522 0.000223792 0
-0.000829333 0.000293349 0
-0.000737558 0.000238148 0
-0.000606425 3.81e-05 0
-0.000606425 -3.81e-05 0
-0.000633412 0 0
-0.000579437 0.000121959 0
-0.000579437 -3.46945e-24 0
-0.000633412 -0.000116471 0
-0.000633412 9.3057e-05 0
-0.000579437 -9.12255e-05 0
-0.000633413 0.000157908 0
-0.000567202 -0.000187707 0
-0.000498475 -9.89365e-05 0
-0.000550572 0.000223792 0
-0.000498475 -3.81e-05 0
-0.000498475 3.81e-05 0
-0.000471487 0 0
-0.000525463 0 0
-0.000471487 0.000121959 0
-0.000525463 9.3057e-05 0
-0.000525463 0.000157908 0
-0.000442622 0.000223792 0
-0.00143192 3.81e-05 0
-0.00143192 -3.81e-05 0
-0.00120967 3.81e-05 0
-0.00120967 -3.81e-05 0
0.000333375 3.81e-05 0
0.000333375 -3.81e-05 0
0.000111125 3.81e-05 0
0.000111125 -3.81e-05 0
-0.000111125 3.81e-05 0
-0.000111125 -3.81e-05 0
-0.000333375 3.81e-05 0
-0.000333375 -3.81e-05 0
0.000822325 3.81e-05 0
0.000822325 -3.81e-05 0
0.000795337 0 0
0.000849312 0 0
0.000849312 0.000121959 0
0.000795337 -0.000121959 0
0.000795337 9.3057e-05 0
0.000849312 -9.3057e-05 0
0.000777422 0.000191366 0
0.000714375 9.87101e-05 0
0.000867228 -0.000191366 0
0.000987425 -3.81e-05 0
0.000987425 3.81e-05 0
0.000931862 -9.94897e-05 0
0.000714375 -3.81e-05 0
0.000714375 3.81e-05 0
0.000687387 0 0
0.000687387 -0.000121959 0
0.000741362 4.996e-22 0
0.000741362 -9.3057e-05 0
0.000741362 -0.000157908 0
0.000800635 -0.000188406 0
0.000658522 -0.000223792 0
0.000829333 -0.000293349 0
0.000737558 -0.000238148 0
0.000606425 -3.81e-05 0
0.000606425 3.81e-05 0
0.000633412 0 0
0.000579437 -0.000121959 0
0.000579437 3.46945e-24 0
0.000633412 0.000116471 0
0.000633412 -9.3057e-05 0
0.000579437 9.12255e-05 0
[...]
POINT_DATA 15898
SCALARS Eabs float 1
LOOKUP_TABLE jet
0.000000
0.000000
0.000000
0.000000
0.000000
0.000000
0.000000
0.000000
0.000000
0.000000
0.000000
0.000000
0.000000
0.000000
0.000000
0.000000
0.000000
0.000000
0.000000
0.000000
0.000000
0.000000
0.000000
0.000000
0.000000
0.000000
0.000000
0.000000
0.000000
0.000000
0.000000
0.000000
0.000000
0.000000
0.000000
0.000000
0.000000
0.000000
0.000000
0.000000
0.000000
0.000000
132.572525
0.000000
0.000000
106.558845
106.772535
132.724086
85.246315
59.202422
63.006175
44.016962
114.687902
83.205560
137.095367
92.540559
365.899036
365.974599
298.328180
298.436630
108.718276
79.865106
233.344952
233.282279
226.514082
226.482249
340.442320
340.405887
305.814458
305.822713
250.771689
250.728619
220.733635
220.738331
153.148876
169.357090
103.555635
127.318961
244.442582
325.714086
170.853785
244.534206
209.013463
290.894261
150.408557
209.205653
171.983955
128.544370
0.000000
0.000000
0.000000
0.000000
232.963048
232.945079
624.672394
624.730737
0.000000
0.000000
245.833857
245.794491
0.000000
0.000000
133.827911
133.745736
53.639828
53.621967
108.457188
108.540662
74.342421
74.232606
330.484571
330.437488
322.129856
375.777299
269.633960
161.738872
269.568537
215.913967
184.797398
45.134248
116.855538
167.213931
56.247328
304.924936
304.933375
342.912824
304.335946
146.291707
240.582883
240.556223
158.765056
199.836184
45.932727
100.352966
132.664827
58.494744
215.772407
110.659903
155.014460
106.266720
0.000000
0.000000
0.000000
0.000000
0.000000
0.000000
0.000000
0.000000
367.431242
367.395019
369.642969
369.629354
438.958402
439.051550
218.503766
218.555620
0.000000
0.000000
0.000000
0.000000
323.251198
323.159187
279.408434
279.392130
0.000000
0.000000
0.000000
0.000000
344.499623
344.516603
107.387332
107.355139
271.237345
271.152275
116.769851
116.785272
264.499232
264.575288
322.004636
179.356307
228.147449
314.152241
322.556209
220.523783
276.062398
354.808414
207.863158
44.790573
78.720066
78.780890
187.799473
19.339675
95.317650
95.287723
44.332758
193.246024
100.625103
89.377673
50.665755
207.636396
208.949276
209.049796
252.805958
127.960619
205.817376
288.936628
190.257426
281.977352
227.038632
286.613628
314.128069
263.787371
206.766865
133.288737
0.000000
0.000000
25.657735
142.635248
144.380385
239.361194
239.414657
5.120909
102.204857
96.763471
157.699748
157.895844
0.883072
102.806124
0.000000
0.000000
0.171384
81.665334
134.610004
0.122192
77.808676
208.031691
94.281230
0.000000
0.000000
156.275828
0.662365
74.466646
123.242298
235.474073
3.863411
144.152873
71.675160
86.969294
0.000000
0.000000
198.129335
232.476158
196.620035
267.101031
264.002507
138.143161
17.198379
71.334601
125.832083
102.718175
102.880572
133.629997
78.293946
82.964705
66.247572
134.061449
111.266330
203.468821
141.848881
186.299891
171.408688
222.338978
124.332229
188.810254
173.090247
254.961661
161.273255
219.449457
128.646284
185.322530
220.790151
215.531771
154.755172
226.471994
206.297855
186.441384
208.264177
279.955872
255.720512
230.512909
211.545437
221.731976
142.649026
128.140588
194.925947
224.265024
111.121791
116.222083
128.564320
170.944281
205.280414
113.312941
237.367981
172.032179
151.495519
236.968168
269.805976
85.526223
183.370394
102.546252
83.513403
82.047501
179.783192
254.538282
116.053980
71.657206
205.676916
82.130644
94.205034
227.878778
95.651796
253.412028
153.697526
147.265405
138.010680
0.000000
0.000000
3.185723
25.538002
41.696244
78.686130
51.869178
30.951827
143.363144
104.878357
73.541652
330.173410
330.093373
147.572112
0.000000
0.000000
0.038131
157.870472
0.386084
81.944768
155.029452
122.701631
251.019201
115.618337
174.372245
0.000000
0.000000
0.073690
239.327357
0.650537
187.160737
137.336381
161.719618
252.420970
350.185981
239.557302
376.528921
0.000000
0.000000
42.812816
5.357162
332.249117
199.839325
358.942690
466.197250
400.835437
400.784783
154.881756
154.946384
553.804807
553.742859
325.864902
325.780574
498.325674
498.261174
390.118960
389.980921
0.000000
0.000000
2.405130
19.243309
203.513093
226.169785
155.020597
142.684662
353.429866
181.750333
289.469893
218.296606
218.280046
153.091595
0.000000
0.000000
0.024135
242.688669
0.290974
163.880689
315.734898
338.837861
380.039774
321.336801
387.467404
0.000000
0.000000
0.089160
231.697062
0.769803
225.129433
163.581783
154.816208
312.036525
336.583592
189.236980
348.849155
0.000000
0.000000
50.727205
6.337925
259.399031
163.276207
297.362291
333.610601
214.779963
214.840028
303.594127
303.668778
267.804616
267.820520
0.000000
0.000000
19.530051
58.810591
65.591834
125.051345
125.083706
3.887515
44.048992
40.235614
80.819386
0.673535
0.000000
0.000000
0.147105
42.342130
78.285331
0.163329
45.680642
104.085223
48.748040
0.000000
0.000000
85.550768
0.741095
50.043165
94.762234
133.590298
4.289264
89.427055
55.604212
58.273148
0.000000
0.000000
114.161183
122.185967
135.644985
127.605453
129.402022
98.670945
19.093698
63.418818
122.214651
113.651074
113.791389
109.903211
77.776277
73.568570
73.721715
123.965927
117.761789
173.941139
141.434750
175.576133
170.946930
62.529239
97.022629
113.776065
112.585532
140.015297
127.354217
136.030623
182.573890
211.341679
205.186811
111.825377
98.634846
117.219116
140.706485
199.570892
106.358880
144.527440
181.062946
127.330666
134.968508
193.377834
73.883039
61.805173
81.877742
102.843017
124.319288
122.432715
135.822209
170.254002
191.449957
94.890579
215.758954
146.423119
71.020958
149.031323
136.220828
61.060987
182.521221
99.475988
17.950833
56.468008
164.981189
146.184110
63.244802
40.920625
162.126137
56.516969
97.352086
197.606064
17.271438
180.123708
110.012648
98.521991
59.199348
245.069988
245.088961
306.430353
191.473754
236.082501
159.650716
69.519609
392.003247
391.958447
393.747198
384.245303
315.482742
365.287433
304.466237
270.128980
139.960355
180.488779
182.022109
319.210610
319.305729
302.824319
315.135559
286.636751
320.663732
301.598841
175.685201
171.916945
171.986244
109.994551
225.847881
205.981357
107.582184
20.209920
151.149746
156.392138
307.780501
307.773768
309.617268
383.168647
100.803639
158.998700
90.354721
215.073652
199.826331
189.413942
257.787227
170.396655
387.636050
387.680237
418.837859
233.279290
398.073211
224.100990
270.744784
293.837187
66.346736
146.067254
96.058142
225.254770
207.951488
208.148888
299.112359
143.348256
0.000000
217.110108
404.902954
404.958511
437.206126
288.964942
452.826350
223.890364
233.498822
271.748637
239.872159
109.264200
282.621022
342.243120
342.287518
413.263177
312.678815
252.703371
288.240304
247.676647
276.947110
114.127669
114.076212
166.061508
215.120840
86.513878
182.542595
161.788831
196.420727
197.377010
225.354622
241.398583
155.280630
281.948273
281.929258
228.516735
357.127554
558.273058
558.359938
561.893322
290.871748
621.948431
376.442110
440.675388
364.319126
276.230914
369.779084
106.743898
253.477172
399.638063
399.905800
526.462269
276.771583
323.860893
422.466990
349.526348
242.527733
336.378429
104.299480
283.477848
502.916837
502.978582
557.798101
635.325951
385.029217
499.968322
481.167178
622.528228
448.906902
253.215904
624.473932
637.597553
288.688526
288.801895
267.217406
395.012033
309.295976
309.367489
260.322746
156.726730
409.138228
393.926120
398.820722
179.931623
419.055142
637.437247
91.250466
225.642802
622.766478
622.825253
570.161219
630.802297
326.052553
326.022990
227.025257
370.791532
391.637867
378.145024
367.959926
326.232957
398.337420
225.480034
433.322102
353.350227
446.917951
379.934263
401.753384
191.144096
420.078993
283.700775
367.097058
278.828654
232.989557
188.828818
191.024246
319.287172
319.349968
398.743745
298.441501
258.809313
258.822338
287.372521
179.641797
259.190029
154.043764
182.140831
218.145556
111.804190
153.431892
98.196062
263.898844
150.856266
150.954437
201.242814
104.421540
0.000000
356.627447
284.276010
284.195404
348.312510
101.235207
285.418509
146.314954
56.685814
149.033660
268.417531
268.352019
265.985808
227.260309
316.003564
178.296331
207.455366
232.224200
153.860383
178.907158
239.317896
273.857938
327.688376
327.594811
359.201106
373.703311
128.047762
200.022942
92.826855
176.998829
195.914343
211.257625
281.469902
281.448331
290.014947
273.172837
270.019173
253.528606
195.556182
74.958993
226.821572
122.523957
108.914053
249.224540
249.201766
247.476278
281.838531
238.842193
260.818843
266.864613
222.477999
210.593238
219.765820
225.364405
171.253129
54.347090
161.962668
0.000000
216.553097
87.814994
239.220669
91.720280
183.687664
115.570215
188.811652
64.594947
52.335060
79.596449
97.789671
270.985666
122.603369
0.000000
319.675637
172.387595
542.954231
626.947467
438.231224
146.942937
171.319051
235.462365
216.699270
53.064140
67.533352
17.207431
184.880956
122.385490
120.617643
113.258632
214.806686
114.058283
164.062959
324.492060
295.266969
158.826230
169.143758
256.294288
222.986706
0.000000
140.604434
313.923933
273.818305
276.679995
181.061890
341.761578
330.247167
0.000000
121.040693
250.407907
0.000000
0.000000
0.000000
177.136533
360.951793
0.000000
0.000000
125.445408
88.968940
140.062804
114.704356
427.761994
162.014886
135.689317
107.486464
162.544399
332.743793
332.777345
201.772181
271.646325
64.646671
116.457866
203.424768
242.773342
197.044127
97.171576
201.437734
205.260925
194.875738
69.021606
215.319464
219.424014
81.827529
156.894003
257.498217
187.761818
93.348276
80.769472
506.747967
248.420436
279.718554
71.603261
238.050279
79.396520
148.845680
425.811940
68.500631
98.835311
123.398915
379.664064
116.739622
109.460210
88.854500
55.529168
129.283791
77.950639
105.413075
75.002896
167.765402
290.479739
0.000000
113.546907
404.459144
284.453497
286.345998
80.491363
18.162974
150.811650
431.718485
100.718925
147.980254
96.362752
127.749712
106.309395
40.391678
82.133213
186.160222
198.114625
202.317268
308.534597
217.427974
161.092347
143.792138
303.463088
255.456643
210.443692
189.265852
138.087832
258.785978
285.909034
152.900982
250.015306
189.682684
249.327205
103.113746
272.075428
209.694104
153.484953
263.387697
139.944744
248.689434
199.965169
174.005072
289.629206
92.764213
80.736277
198.083123
185.097423
0.000000
307.557804
178.592918
128.889805
83.809315
70.500298
0.000000
132.456530
124.102252
210.828695
201.382100
216.327542
199.960900
0.000000
136.282285
0.000000
229.000047
156.151919
115.901254
0.000000
211.979722
129.784175
0.000000
213.183060
333.393309
174.324253
382.161121
272.008439
0.000000
494.992605
466.083660
101.357892
65.450890
173.114635
124.730904
221.394676
254.291656
39.476399
138.167245
138.296970
247.191266
148.073890
266.621779
237.601680
229.779627
323.638012
202.398243
116.299035
168.383179
79.800462
290.264829
138.333278
518.563211
211.380846
337.809340
141.573281
405.295767
191.233141
173.048677
86.478156
175.023874
187.831688
281.953823
334.991186
111.770158
147.309554
329.535683
0.000000
420.386845
421.166490
201.676389
167.108117
208.476226
122.982026
344.584258
108.434984
112.279316
0.000000
195.560630
172.552133
155.202290
93.130375
491.100778
232.070464
0.000000
137.683285
252.701639
326.729077
338.392471
115.916929
213.423628
163.479595
208.166106
191.785597
166.369666
134.150535
155.550933
185.333489
0.000000
181.600271
105.875155
128.577319
68.218473
105.830652
140.976567
90.157142
148.618754
139.275045
0.000000
144.570507
130.217456
141.844422
91.721874
0.000000
159.759807
122.119126
102.311278
68.601456
95.969190
44.715824
75.551871
221.106984
122.335084
117.362336
64.902320
78.398974
0.000000
89.566111
50.439969
24.244561
56.188615
32.365204
73.780391
40.181878
103.446035
48.630970
0.000000
61.614173
45.660929
99.171855
15.094309
0.000000
107.705562
66.988800
21.511557
26.689250
35.361508
34.721907
5.585073
183.291171
197.622304
263.760170
266.879483
0.000000
175.935124
204.049572
256.586460
0.000000
0.000000
265.156878
365.093780
211.055432
145.176658
66.423378
0.000000
90.183936
310.847214
216.346232
345.830851
0.000000
296.865939
64.603419
193.192897
143.598801
153.212310
117.441463
355.610886
193.848941
138.965718
117.884657
196.359574
171.969317
40.905339
476.941317
69.124282
343.401708
141.014768
30.593455
157.703396
0.000000
44.380655
149.588841
0.000000
24.373733
121.497712
222.894293
149.159697
145.735599
65.740862
0.000000
195.879958
154.472070
329.742069
193.996190
258.611026
0.000000
169.767244
156.103540
102.166425
138.559378
277.325484
180.503043
110.182731
0.000000
75.106120
225.969065
0.000000
143.288406
235.348475
154.203640
0.000000
139.664888
150.649201
115.394668
186.204627
88.264700
0.000000
71.911985
259.294463
240.819435
223.700804
255.325445
0.000000
247.280305
117.632670
280.969374
52.541571
218.819240
176.489577
202.526048
0.000000
198.769079
106.137387
160.556452
198.199279
82.003632
242.478110
504.881371
281.953911
286.285525
269.216865
0.000000
110.680964
47.532900
0.000000
22.376072
63.365698
0.000000
267.427564
159.329288
267.097784
45.369022
79.289921
394.577707
292.016933
218.721110
87.166349
81.741554
296.648725
297.861922
159.579706
268.794724
249.858294
377.627190
0.000000
328.147297
63.297862
0.000000
0.000000
106.773163
255.218282
61.199766
39.642067
66.685699
0.000000
116.184526
23.777016
111.291596
398.397854
0.000000
357.137236
244.596212
293.169931
533.248641
16.974058
439.886446
193.480655
0.000000
98.843754
58.222868
87.594125
166.807240
0.000000
106.485664
138.856149
0.000000
141.342771
200.984331
260.770333
232.828694
124.256486
0.000000
74.425795
10.448370
23.743237
63.209748
0.000000
42.286914
115.107206
0.000000
123.869125
150.768101
181.995705
132.024192
84.732494
0.000000
281.398876
0.000000
0.000000
260.524831
27.502224
150.896166
116.350145
121.548739
201.628480
250.197946
0.000000
185.491979
51.624811
73.177834
0.000000
164.380267
348.843348
225.531484
222.649086
95.978797
26.394996
188.557650
96.064897
32.571183
124.738087
429.760998
0.000000
19.270305
12.389903
0.000000
39.054099
73.830859
164.428315
0.000000
356.388894
0.000000
307.210922
161.709571
244.189615
191.265336
271.220885
496.036111
500.575884
269.014343
444.577853
396.388127
221.633900
67.806418
448.434009
212.306944
0.000000
71.289858
269.187800
379.660183
142.311818
189.531655
611.102661
0.000000
418.008596
554.520903
573.018518
342.628029
310.800225
311.195375
145.596462
152.562192
183.352012
121.987199
230.641963
0.000000
76.004790
119.823719
84.607539
142.130148
0.000000
25.303700
0.000000
148.859688
140.710938
88.434989
90.743131
0.000000
384.561912
170.019012
11.133899
54.439696
132.084000
147.572294
123.609873
0.000000
76.371482
171.861674
178.925743
0.000000
0.000000
324.470551
0.000000
193.808977
0.000000
259.174674
0.000000
180.672589
0.000000
23.335654
151.924821
129.871865
62.237012
180.474124
219.994667
547.414334
352.624347
405.549504
207.264545
161.381966
116.722956
233.064817
268.973238
79.837281
160.637682
274.013574
59.231548
257.335301
257.665846
279.546867
269.443876
272.512427
154.513354
483.012151
470.514470
129.077129
117.515263
61.643799
14.493609
221.153513
0.000000
250.991908
40.492594
489.146318
159.103241
180.413431
190.236656
50.190312
159.084406
172.557085
171.895042
157.689557
219.301848
222.343945
287.977127
242.194920
285.316577
291.963679
290.690509
200.778713
185.654380
217.013986
221.422312
205.026969
161.594126
81.572639
27.888259
88.773453
125.197860
128.199814
116.244708
125.655338
132.760517
125.047275
99.585316
56.748271
30.600471
64.400514
82.854539
65.344166
0.000000
94.751396
176.687624
177.311692
121.160745
146.069524
99.950606
111.836253
109.215020
98.618965
0.000000
77.206271
76.031505
40.573134
103.147212
0.000000
207.472900
248.608265
391.571178
384.213616
197.041866
225.221201
212.705109
134.276868
108.025175
174.785785
0.000000
86.924411
80.480445
83.412625
0.000000
140.267633
306.290158
124.080081
37.668711
407.765983
160.631035
0.000000
0.000000
256.851454
145.480338
81.387564
489.620489
605.769216
573.035497
330.538183
420.192604
361.641016
106.862562
0.000000
0.000000
164.651998
89.304803
76.447530
283.863595
121.127719
0.000000
227.929686
332.770083
0.000000
210.670720
31.086766
255.670233
190.942406
146.092226
32.275501
203.569798
205.789724
170.744001
201.795720
89.327061
113.529382
93.714963
46.620952
112.768355
117.075843
101.837210
113.347086
66.668829
96.414035
0.000000
66.106617
79.063279
37.297064
174.064504
210.943837
90.401024
155.069314
0.000000
0.000000
87.922924
68.064317
0.000000
82.792880
72.749092
37.660400
34.893115
17.178179
6.514158
0.000000
49.553380
22.314837
67.371740
52.799169
95.605494
69.190290
17.643865
36.875118
0.000000
70.470472
78.456628
56.040726
83.640477
33.958243
33.750731
65.747701
36.058635
90.582793
126.713239
43.019368
22.813444
59.217861
66.720503
46.564848
53.089279
14.554549
33.432587
61.382697
37.302126
0.000000
24.055030
57.220911
33.190484
9.704549
12.713056
8.250593
2.479468
0.000000
11.172460
5.746693
22.640287
5.745139
27.681780
57.113761
48.513660
48.092824
77.628523
0.000000
17.784008
75.736305
68.695599
21.585970
76.285672
25.534194
68.542993
136.516545
68.563554
62.969108
76.022648
104.437367
75.924998
72.555750
0.000000
64.889194
48.011004
0.000000
45.767103
45.051343
0.000000
25.615866
29.461478
28.936750
55.819475
0.000000
49.005284
73.297322
42.426564
0.000000
36.775964
80.185927
47.660416
20.951128
0.000000
14.592983
6.065930
187.533161
157.820800
42.283202
90.207457
45.309936
56.303202
69.357533
68.402239
86.219817
102.161725
109.570992
105.396917
110.336159
92.051871
102.341257
102.099988
90.317466
46.679317
115.149131
87.052133
61.843308
77.943592
114.123452
112.903452
80.154287
111.318692
102.113911
108.468736
107.874118
111.529397
112.390656
113.896467
113.459863
106.190175
112.002522
103.660071
115.531383
119.139913
116.115853
94.524284
116.706338
103.577401
86.171324
102.570105
77.224821
56.198149
54.040327
117.098268
74.450650
80.497610
37.641718
58.587939
117.176911
90.844802
12.688240
0.000000
22.480037
18.719453
30.370879
31.647350
194.208005
214.534902
39.967590
42.438159
49.268989
14.830088
74.120108
32.268247
34.900845
19.470959
136.397289
45.765000
12.330413
194.137977
171.468627
36.813562
0.000000
7.281236
202.250862
169.176201
212.398161
212.389127
203.871476
177.228592
94.741008
83.181912
27.114129
37.390024
39.246179
29.717740
49.626687
44.334077
0.000000
35.751595
37.831959
27.805977
23.010396
22.470931
0.000000
17.848461
10.089147
21.672867
6.493741
8.546601
7.189802
12.681705
9.015039
14.271505
15.464006
12.522192
23.722437
20.924212
41.959965
0.000000
29.441559
0.000000
47.827289
15.405051
4.242152
5.216746
64.839005
115.483402
62.806428
28.928618
76.410202
29.918580
59.361751
36.658986
109.176372
39.262003
37.510150
7.123886
13.489007
68.659907
0.000000
74.255735
75.603736
74.218905
63.420601
61.313605
69.338313
75.323090
72.615269
0.000000
49.080226
66.954162
50.699941
49.267454
0.000000
48.162853
0.000000
46.283294
27.833738
55.916424
146.444394
103.965101
243.334147
123.260659
97.916675
303.311636
0.000000
76.031119
31.838995
106.703572
93.118617
72.341841
80.319272
47.961030
66.914506
70.475409
157.983494
0.000000
0.000000
286.674550
473.920779
263.484943
111.958804
66.912483
253.315999
0.000000
65.423869
0.000000
27.494969
0.000000
29.189532
28.324822
66.488616
51.104140
81.206974
0.000000
24.162756
0.000000
31.986669
39.845349
26.185058
56.729272
44.878616
72.283541
181.996828
52.589017
0.014432
0.004264
0.008425
142.987293
147.040023
138.864309
128.739237
35.132247
51.277846
267.319602
214.378856
260.757569
168.868897
115.595869
0.000000
279.626653
230.127179
285.125426
142.196140
258.609699
187.364477
115.714907
120.237277
87.772719
0.000000
31.562666
0.000000
162.492027
165.223121
179.679715
224.072118
216.983543
198.983933
0.027563
0.047514
0.080751
104.084937
145.203059
96.263374
73.391673
51.256250
29.197677
56.518149
26.124342
196.660011
95.371603
213.229978
89.817458
44.106542
263.259518
302.062107
290.763941
559.431531
448.779451
519.226829
337.485256
370.135203
368.797203
56.486447
38.555719
22.190864
258.880262
328.182189
272.418988
144.651881