# vtk DataFile Version 2.0
Unstructured Grid
ASCII
DATASET UNSTRUCTURED_GRID
POINTS 15898 double
-0.0040355 -0.0008255 0
0.0040355 -0.0008255 0
0.0040355 0.0008255 0
-0.0040355 0.0008255 0
-0.0030206 -3.81e-05 0
-0.0029888 -3.81e-05 0
-0.0029888 3.81e-05 0
-0.0030206 3.81e-05 0
-0.0021018 -3.81e-05 0
-0.0021018 3.81e-05 0
-0.0017653 -3.81e-05 0
-0.0017653 3.81e-05 0
-0.0008763 -3.81e-05 0
-0.0008763 3.81e-05 0
-0.0004445 -3.81e-05 0
-0.0004445 3.81e-05 0
0.0004445 -3.81e-05 0
0.0004445 3.81e-05 0
0.0008763 -3.81e-05 0
0.0008763 3.81e-05 0
0.0017653 -3.81e-05 0
0.0017653 3.81e-05 0
0.0021018 -3.81e-05 0
0.0021018 3.81e-05 0
0.0029888 -3.81e-05 0
0.0029888 3.81e-05 0
0.0030206 -3.81e-05 0
0.0030206 3.81e-05 0
0 -0.0008255 0
0 0.0008255 0
0.00201775 -0.0008255 0
-0.00201775 -0.0008255 0
0.00201775 0.0008255 0
0.00100888 -0.0008255 0
-0.00302662 -0.0008255 0
0.00302662 0.0008255 0
-0.00201775 0.0008255 0
0.00302662 -0.0008255 0
-0.00100888 -0.0008255 0
0.00100888 0.0008255 0
-0.00100888 0.0008255 0
-0.00302662 0.0008255 0
-0.0030047 -8.75062e-05 0
-0.0030206 -6.1e-06 0
0.0030206 6.1e-06 0
0.0030047 8.75062e-05 0
0.0030047 -8.75062e-05 0
-0.0030047 8.75062e-05 0
-0.00307032 -2.21e-05 0
0.00307032 2.21e-05 0
-0.00305515 1.6e-05 0
0.00305515 -1.6e-05 0
-0.00307221 8.07215e-05 0
0.00307221 -8.07215e-05 0
-0.00312193 2.05215e-05 0
0.00312193 -2.05215e-05 0
-0.0025453 -3.81e-05 0
-0.0025453 3.81e-05 0
0.0025453 3.81e-05 0
0.0025453 -3.81e-05 0
-0.00306099 -7.83598e-05 0
0.00306099 7.83598e-05 0
-0.00276705 -3.81e-05 0
-0.00276705 3.81e-05 0
0.00276705 3.81e-05 0
0.00276705 -3.81e-05 0
-0.00287792 -3.81e-05 0
-0.00287792 3.81e-05 0
0.00287792 3.81e-05 0
0.00287792 -3.81e-05 0
-0.00293336 -3.81e-05 0
-0.00293336 3.81e-05 0
0.00293336 3.81e-05 0
0.00293336 -3.81e-05 0
-0.00314826 -6.3926e-05 0
-0.00304706 -0.000170388 0
0.00314826 6.3926e-05 0
0.00304706 0.000170388 0
-0.00290564 -0.000124231 0
-0.00290564 0 0
-0.00296108 0 0
-0.00290564 0.000124231 0
0.00290564 0.000124231 0
0.00290564 0 0
0.00296108 0 0
0.00290564 -0.000124231 0
-0.003049 0.000188999 0
0.003049 -0.000188999 0
-0.00193355 3.81e-05 0
-0.00193355 -3.81e-05 0
-0.0006604 -3.81e-05 0
-0.0006604 3.81e-05 0
-0.0013208 3.81e-05 0
-0.0013208 -3.81e-05 0
0 -3.81e-05 0
0 3.81e-05 0
0.0006604 3.81e-05 0
0.0006604 -3.81e-05 0
0.0013208 -3.81e-05 0
0.0013208 3.81e-05 0
0.00193355 3.81e-05 0
0.00193355 -3.81e-05 0
-0.00232355 -3.81e-05 0
-0.00232355 3.81e-05 0
0.00232355 -3.81e-05 0
0.00232355 3.81e-05 0
-0.00265618 -3.81e-05 0
-0.00265618 3.81e-05 0
0.00265618 -3.81e-05 0
0.00265618 3.81e-05 0
-0.00282249 -3.81e-05 0
-0.00282249 3.81e-05 0
-0.00279477 0 0
-0.00285021 0 0
-0.00285021 -9.45461e-05 0
-0.00279477 0.000124231 0
-0.00285021 9.45461e-05 0
-0.00279477 -8.67406e-05 0
-0.00285021 0.000161155 0
-0.00271161 -0.00010191 0
-0.00281036 -0.000176774 0
-0.00293529 0.000228823 0
-0.00276512 0.000228823 0
0.00282249 -3.81e-05 0
0.00282249 3.81e-05 0
0.00285021 0 0
0.00279477 0 0
0.00279477 -0.000124231 0
0.00285021 -9.45461e-05 0
0.00285021 9.45461e-05 0
0.00285021 -0.000161155 0
0.00279477 8.67406e-05 0
0.00271161 0.00010191 0
0.00281036 0.000176774 0
0.00293529 -0.000228823 0
0.00276512 -0.000228823 0
-0.0040355 0 0
0.0040355 0 0
-0.0031906 0.000127865 0
0.0031906 -0.000127865 0
-0.00184943 -3.81e-05 0
-0.00184943 3.81e-05 0
-0.00201768 -3.81e-05 0
-0.00201768 3.81e-05 0
-0.00076835 3.81e-05 0
-0.00076835 -3.81e-05 0
-0.00055245 3.81e-05 0
-0.00055245 -3.81e-05 0
-0.00154305 3.81e-05 0
-0.00154305 -3.81e-05 0
-0.00109855 3.81e-05 0
-0.00109855 -3.81e-05 0
0.00022225 -3.81e-05 0
0.00022225 3.81e-05 0
-0.00022225 -3.81e-05 0
-0.00022225 3.81e-05 0
0.00076835 -3.81e-05 0
0.00076835 3.81e-05 0
0.00055245 -3.81e-05 0
0.00055245 3.81e-05 0
0.00154305 -3.81e-05 0
0.00154305 3.81e-05 0
0.00109855 -3.81e-05 0
0.00109855 3.81e-05 0
0.00184943 -3.81e-05 0
0.00184943 3.81e-05 0
0.00201768 3.81e-05 0
0.00201768 -3.81e-05 0
-0.00243443 -3.81e-05 0
-0.00243443 3.81e-05 0
-0.00221267 3.81e-05 0
-0.00221267 -3.81e-05 0
0.00243443 -3.81e-05 0
0.00243443 3.81e-05 0
0.00221267 3.81e-05 0
0.00221267 -3.81e-05 0
-0.00260074 -3.81e-05 0
-0.00260074 3.81e-05 0
-0.00257302 0 0
-0.00262846 0 0
-0.00262846 -0.000118168 0
-0.00257302 0.000124231 0
-0.00257302 -9.25281e-05 0
-0.00262846 9.45461e-05 0
-0.0025609 -0.000191479 0
-0.00248986 -0.000100605 0
-0.00264686 0.000195519 0
-0.00271161 0.000100352 0
-0.00271161 3.81e-05 0
-0.00271161 -3.81e-05 0
-0.00273933 0 0
-0.00268389 0 0
0.00271161 3.81e-05 0
0.00271161 -3.81e-05 0
0.00268389 0 0
0.00273933 0 0
0.00268389 -0.000124231 0
0.00273933 -9.45461e-05 0
0.00273933 -0.000161155 0
0.00265425 -0.000228823 0
0.00260074 3.81e-05 0
0.00260074 -3.81e-05 0
0.00257302 0 0
0.00262846 0 0
0.00262846 0.000118168 0
0.00257302 -0.000124231 0
0.00262846 -9.45461e-05 0
0.00257302 9.25281e-05 0
0.00262846 -0.000161155 0
0.0025609 0.000191479 0
0.00248986 0.000100605 0
0.00254337 -0.000228823 0
-0.00325009 1.41646e-05 0
0.00325009 -1.41646e-05 0
-0.00180736 -3.81e-05 0
-0.00180736 3.81e-05 0
-0.00178633 -3.46945e-24 0
-0.00182839 -0.000103451 0
-0.00178633 0.000103451 0
-0.00165417 3.81e-05 0
-0.00165417 -3.81e-05 0
-0.00182839 1.63608e-06 0
-0.00178633 -8.09278e-05 0
-0.00182839 8.09278e-05 0
-0.00170974 3.81e-05 0
-0.00170974 -3.81e-05 0
-0.00187336 0 0
-0.0017413 0 0
-0.00189149 3.81e-05 0
-0.00189149 -3.81e-05 0
-0.00191252 4.72761e-06 0
-0.00187046 7.50055e-05 0
-0.00191252 -0.000103451 0
-0.00195701 0 0
-0.00191252 7.45303e-05 0
-0.00185863 0.000143317 0
-0.00187046 -8.09278e-05 0
-0.00197561 3.81e-05 0
-0.00197561 -3.81e-05 0
-0.00189193 0.000113904 0
-0.00199664 4.24397e-06 0
-0.00195458 7.45272e-05 0
-0.00199664 -0.000103451 0
-0.00192098 0.000180353 0
-0.00204124 0 0
-0.00193355 0.000110599 0
-0.00199664 7.45272e-05 0
-0.00195458 -8.09278e-05 0
-0.00205974 3.81e-05 0
-0.00205974 -3.81e-05 0
-0.00191521 0.000143302 0
-0.00188692 0.00016668 0
-0.00197168 0.000153484 0
-0.00183648 0.000198962 0
-0.00188536 0.000219802 0
-0.00197561 0.000110953 0
-0.00208077 4.35113e-06 0
-0.00203871 7.45272e-05 0
-0.00208077 -0.000103451 0
-0.00215724 -3.81e-05 0
-0.00215724 3.81e-05 0
-0.00201768 0.000110954 0
-0.00208077 7.45272e-05 0
-0.00203871 -8.09278e-05 0
-0.00212535 0 0
-0.00205974 0.000110954 0
-0.00212952 7.83882e-05 0
-0.00203871 0.000176305 0
-0.00210238 0.000111292 0
-0.00208072 0.000153768 0
-0.00216707 0.000136997 0
-0.00177237 -0.00015754 0
-0.00173752 -7.83202e-05 0
-0.00187046 -0.000131466 0
-0.00195458 -0.000131466 0
-0.00182854 0.000285337 0
-0.00203871 -0.000131466 0
-0.00196446 0.000255404 0
-0.00218296 8.5479e-05 0
-0.00212468 0.000149425 0
-0.00210945 0.000219895 0
-0.0021608 0.000194113 0
-0.00168196 -8.69941e-05 0
-0.00182427 -0.000155233 0
-0.00191252 -0.000149035 0
-0.00199664 -0.000149035 0
-0.00210326 -0.000182809 0
-0.0018019 -0.000237014 0
-0.001871 -0.000189296 0
-0.00195458 -0.000190603 0
-0.00204066 -0.000195272 0
-0.00168196 0 0
-0.00168196 0.000124425 0
-0.00173752 8.31001e-05 0
-0.00174038 0.000144959 0
-0.0018054 0.00015436 0
-0.00218496 0 0
-0.00212952 -8.308e-05 0
-0.00218496 -8.62124e-05 0
-0.00212238 -0.000134522 0
-0.00218784 -0.00018837 0
-0.00225506 0.000135926 0
-0.00217518 0.000286786 0
-0.0017178 -0.000134273 0
-0.00159861 -0.00010201 0
-0.00167926 0.000225458 0
-0.00176316 0.000216919 0
-0.00226811 -0.00010208 0
-0.00209132 -0.000286311 0
-0.00223634 8.59434e-05 0
-0.00229636 9.19548e-05 0
-0.00226811 3.81e-05 0
-0.00221148 0.000170775 0
-0.00171114 -0.000225515 0
-0.00165 -0.000148439 0
-0.00234403 0.000178113 0
-0.00237899 9.98755e-05 0
-0.00226811 -3.81e-05 0
-0.00224039 0 0
-0.00220986 0.000233953 0
-0.00229583 0 0
-0.00227461 0.00031425 0
-0.00227377 0.000203984 0
-0.00155217 -0.000205066 0
-0.00233379 0.000258663 0
-0.000822325 -3.81e-05 0
-0.000822325 3.81e-05 0
-0.000795337 0 0
-0.000849312 0 0
-0.000849312 -0.000121959 0
-0.000795337 0.000121959 0
-0.000795337 -9.3057e-05 0
-0.000849312 9.3057e-05 0
-0.000777422 -0.000191366 0
-0.000714375 -9.87101e-05 0
-0.000867228 0.000191366 0
-0.000987425 3.81e-05 0
-0.000987425 -3.81e-05 0
-0.000931862 9.94897e-05 0
-0.000714375 3.81e-05 0
-0.000714375 -3.81e-05 0
-0.000687387 0 0
-0.000687387 0.000121959 0
-0.000741362 -4.996e-22 0
-0.000741362 9.3057e-05 0
-0.000741362 0.000157908 0
-0.000800635 0.000188406 0
-0.000658522 0.000223792 0
-0.000829333 0.000293349 0
-0.000737558 0.000238148 0
-0.000606425 3.81e-05 0
-0.000606425 -3.81e-05 0
-0.000633412 0 0
-0.000579437 0.000121959 0
-0.000579437 -3.46945e-24 0
-0.000633412 -0.000116471 0
-0.000633412 9.3057e-05 0
-0.000579437 -9.12255e-05 0
-0.000633413 0.000157908 0
-0.000567202 -0.000187707 0
-0.000498475 -9.89365e-05 0
-0.000550572 0.000223792 0
-0.000498475 -3.81e-05 0
-0.000498475 3.81e-05 0
-0.000471487 0 0
-0.000525463 0 0
-0.000471487 0.000121959 0
-0.000525463 9.3057e-05 0
-0.000525463 0.000157908 0
-0.000442622 0.000223792 0
-0.00143192 3.81e-05 0
-0.00143192 -3.81e-05 0
-0.00120967 3.81e-05 0
-0.00120967 -3.81e-05 0
0.000333375 3.81e-05 0
0.000333375 -3.81e-05 0
0.000111125 3.81e-05 0
0.000111125 -3.81e-05 0
-0.000111125 3.81e-05 0
-0.000111125 -3.81e-05 0
-0.000333375 3.81e-05 0
-0.000333375 -3.81e-05 0
0.000822325 3.81e-05 0
0.000822325 -3.81e-05 0
0.000795337 0 0
0.000849312 0 0
0.000849312 0.000121959 0
0.000795337 -0.000121959 0
0.000795337 9.3057e-05 0
0.000849312 -9.3057e-05 0
0.000777422 0.000191366 0
0.000714375 9.87101e-05 0
0.000867228 -0.000191366 0
0.000987425 -3.81e-05 0
0.000987425 3.81e-05 0
0.000931862 -9.94897e-05 0
0.000714375 -3.81e-05 0
0.000714375 3.81e-05 0
0.000687387 0 0
0.000687387 -0.000121959 0
0.000741362 4.996e-22 0
0.000741362 -9.3057e-05 0
0.000741362 -0.000157908 0
0.000800635 -0.000188406 0
0.000658522 -0.000223792 0
0.000829333 -0.000293349 0
0.000737558 -0.000238148 0
0.000606425 -3.81e-05 0
0.000606425 3.81e-05 0
0.000633412 0 0
0.000579437 -0.000121959 0
0.000579437 3.46945e-24 0
0.000633412 0.000116471 0
0.000633412 -9.3057e-05 0
0.000579437 9.12255e-05 0
[...]
POINT_DATA 15898
SCALARS Eabs float 1
LOOKUP_TABLE jet
0.000000
0.000000
0.000000
0.000000
0.000000
0.000000
0.000000
0.000000
0.000000
0.000000
0.000000
0.000000
0.000000
0.000000
0.000000
0.000000
0.000000
0.000000
0.000000
0.000000
0.000000
0.000000
0.000000
0.000000
0.000000
0.000000
0.000000
0.000000
0.000000
0.000000
0.000000
0.000000
0.000000
0.000000
0.000000
0.000000
0.000000
0.000000
0.000000
0.000000
0.000000
0.000000
9.175514
0.000000
0.000000
8.945433
8.966076
9.199895
2.379659
4.279636
1.922243
3.229525
3.535769
5.831250
2.291556
6.432230
32.650568
32.672864
20.765941
20.765021
3.905320
5.816787
26.554165
26.542313
14.271504
14.256756
28.576712
28.577848
13.952876
13.965594
31.165329
31.158886
17.972849
17.975403
1.755501
6.463027
6.426866
7.887566
15.952607
38.798785
25.852681
15.956306
10.727633
20.276097
14.864521
10.740591
7.288856
6.949697
0.000000
0.000000
0.000000
0.000000
11.098713
11.092151
37.049123
37.072013
0.000000
0.000000
7.796287
7.790474
0.000000
0.000000
22.456185
22.453228
11.639927
11.653516
19.310701
19.287148
5.184098
5.201531
7.954740
7.955079
18.181511
21.693793
10.452893
4.455732
10.457888
8.258271
7.121964
16.005858
3.029889
11.655524
1.582690
1.675172
1.688259
7.710729
10.865666
6.822242
4.972600
4.952740
4.686696
6.427472
8.822187
7.465520
2.507883
9.256279
12.836266
3.474564
3.457655
5.086491
0.000000
0.000000
0.000000
0.000000
0.000000
0.000000
0.000000
0.000000
17.895410
17.892528
12.373310
12.387239
26.635338
26.620381
15.219280
15.195874
0.000000
0.000000
0.000000
0.000000
8.921133
8.919097
8.263084
8.279964
0.000000
0.000000
0.000000
0.000000
5.781678
5.769236
16.125456
16.102314
10.957250
10.965003
8.415513
8.436181
16.528483
16.542304
29.130867
12.812568
5.255690
16.685531
19.958059
5.463702
12.812838
16.770774
11.276498
16.358745
34.605332
34.626701
39.818011
35.124365
14.102515
14.084429
11.403849
18.726005
5.513869
10.549480
9.998823
5.444688
14.920758
14.918816
21.125628
10.170381
3.869461
10.232346
5.256755
13.803563
2.501737
3.149296
10.956119
3.131513
1.163802
8.475095
0.000000
0.000000
4.242019
4.151346
8.510868
13.687608
13.699167
1.001813
6.965810
3.264210
17.666277
17.690352
0.210248
14.357697
0.000000
0.000000
0.059352
2.075098
5.564458
0.076078
3.077959
3.981527
2.379218
0.000000
0.000000
5.314875
0.280614
3.256443
3.942636
12.640106
1.347532
6.758468
1.965758
3.863787
0.000000
0.000000
9.142105
8.221815
10.334739
1.401754
10.652146
5.949173
5.137304
1.390685
7.595863
21.877072
21.924310
2.531817
6.170990
1.487423
17.497533
4.299551
15.468212
4.162119
11.362380
6.540472
16.077004
11.064532
12.794551
4.638000
8.804521
3.372340
1.891817
18.291964
17.484791
13.454884
7.360717
13.844951
12.646248
4.209676
9.471848
7.844367
8.685740
6.208554
6.979908
14.528014
5.202729
20.342902
11.288181
12.830975
13.463816
6.760380
24.343510
15.402124
17.204660
13.704668
13.375766
2.576014
11.429390
13.672330
5.202432
13.494038
12.328680
2.545992
0.672264
6.651891
10.518144
5.611099
11.183327
15.267016
6.765967
13.378189
14.959062
5.624299
7.803887
10.729365
18.082905
3.215724
2.150864
8.963658
10.048025
0.000000
0.000000
0.359972
2.323700
5.628637
9.334055
6.340402
3.068989
13.490462
6.299383
8.296042
13.103476
13.089345
6.082023
0.000000
0.000000
0.006417
6.248364
0.054333
6.623377
11.798722
13.063482
5.038690
6.906186
11.205573
0.000000
0.000000
0.016131
5.493652
0.112708
1.941156
1.766751
4.047651
1.168191
7.772634
9.629701
9.431132
0.000000
0.000000
4.791554
0.743466
13.106858
7.518302
11.591497
11.750974
8.898880
8.882715
16.403253
16.407538
26.906670
26.901421
28.407573
28.418812
14.923307
14.930377
22.884398
22.843299
0.000000
0.000000
0.397229
2.564011
5.880670
7.388309
4.949054
3.308730
10.376502
4.316417
9.643883
15.734999
15.739716
6.132337
0.000000
0.000000
0.009576
4.620819
0.060284
4.647518
8.740184
10.518050
6.238631
2.422953
8.307343
0.000000
0.000000
0.020446
8.695541
0.134772
4.362130
3.277074
6.169753
5.646692
10.985110
12.258001
10.306130
0.000000
0.000000
5.722581
0.887879
16.803318
9.749828
15.236273
15.512916
15.924122
15.917424
7.314706
7.325737
8.009510
7.996281
0.000000
0.000000
3.937752
5.572726
5.612819
16.593403
16.613050
0.928141
4.288539
5.056262
13.571218
0.191888
0.000000
0.000000
0.042049
4.097034
7.313337
0.020688
4.456192
7.390380
4.666344
0.000000
0.000000
7.669990
0.118593
4.552913
7.022688
9.801929
0.583177
8.142156
4.177499
5.280385
0.000000
0.000000
9.610684
8.600747
10.427081
3.588497
5.717428
8.048747
2.227295
3.433948
5.140453
9.754171
9.779630
7.085265
3.211682
4.004543
7.677715
5.851598
6.424298
8.987579
5.891653
7.445323
7.902180
8.870073
7.750499
9.618252
4.438503
7.703313
6.931978
8.313006
7.438329
7.144299
7.855958
8.928788
2.756976
9.655586
9.849426
7.630319
5.359678
10.305384
8.750774
6.785350
2.363054
21.673905
3.545104
8.503301
3.110947
4.404018
11.462039
6.430356
8.235704
7.096433
7.610447
5.121333
6.369374
2.963521
3.674552
10.096675
3.825877
3.520771
3.611110
5.377144
3.802711
4.219675
7.127885
8.093686
5.494315
7.359825
4.528576
4.223621
5.700008
6.632956
9.745638
2.499437
5.634756
13.028309
7.671908
20.212731
20.217726
12.792921
27.717369
10.191087
17.373872
12.553698
26.659672
26.651646
36.442682
17.612230
7.825923
22.644841
10.849360
13.568616
10.117530
12.430252
8.208239
15.919986
15.914425
13.486520
20.790137
5.806976
14.355710
6.545706
9.037003
13.949204
13.937630
17.181420
15.488390
1.137825
5.988891
7.800492
10.044961
7.760613
7.006595
6.997883
9.885328
13.561229
10.424778
2.558092
3.616323
8.648992
8.766448
14.143129
14.401302
16.418523
2.345578
2.358414
6.180020
2.175415
10.446571
5.638290
6.084125
2.978916
4.510833
5.980507
3.806205
9.346009
12.733927
12.749488
17.092071
10.807279
0.000000
8.260997
18.103085
18.106220
20.745691
13.237548
14.287978
12.979171
8.894897
1.477839
17.475435
14.466300
8.179590
10.634092
10.646562
11.281137
16.057211
3.919361
3.072705
5.232280
8.046733
6.831571
6.832551
9.471855
5.218967
12.875506
3.164692
5.761727
5.411610
7.068490
9.353310
6.211613
9.304405
20.424597
20.413562
23.195609
20.810542
9.343500
9.341606
19.104931
8.120623
21.908450
5.075327
7.554994
10.012850
6.461663
20.285838
8.936516
18.014718
30.175375
30.189962
37.398676
25.854848
19.136160
19.940648
13.967301
3.625468
15.711424
5.156013
10.179630
28.096152
28.115153
33.251795
25.801491
26.877839
13.958942
18.102356
30.521455
15.346582
18.040942
19.740536
27.908716
35.998711
35.981883
38.987633
39.075134
17.062766
17.035644
20.889699
14.231113
14.297682
11.116716
13.001101
14.399793
5.593628
27.924943
16.925464
3.168880
30.653499
30.668861
20.269721
35.971271
25.113531
25.139838
21.614445
14.487377
31.460689
11.388051
15.211290
15.182716
6.073020
3.209882
13.385060
6.626440
8.413116
5.549603
1.183852
10.767116
3.191760
7.868566
4.112914
13.336536
14.339611
14.934699
17.817143
7.875498
7.896345
19.280822
11.094536
8.149677
8.136965
6.351368
2.568065
14.421763
4.762044
7.005223
3.966367
6.634103
6.032268
1.949135
5.405015
14.108291
14.114575
19.453117
11.948983
0.000000
7.067158
6.064362
6.080303
5.364676
8.285497
14.595656
1.948044
8.810910
12.528974
5.722534
5.716995
7.301400
12.928948
3.337977
7.538438
7.436475
11.317520
2.112319
9.829015
13.693425
10.389239
12.440755
12.431473
11.222435
12.574853
9.957052
8.700045
4.925993
5.685871
7.530956
4.294704
12.674756
12.688786
14.657971
15.463193
6.433551
5.460499
3.613921
3.092283
9.495679
7.617713
2.130954
2.076911
2.068173
7.082461
10.375085
5.916454
11.305445
15.766620
11.931896
7.521786
4.878732
10.052156
6.240488
5.795544
8.333420
0.000000
3.053375
14.344916
6.230473
12.040431
2.519979
8.486344
16.856878
3.707321
4.258449
6.425449
4.784874
4.671247
3.972454
0.000000
10.858109
10.441163
5.582635
15.583306
13.931835
13.959210
7.278654
8.411098
4.209150
6.737118
7.064741
10.751478
3.463275
2.612454
6.207060
5.941197
8.109247
4.329666
3.733950
6.544199
1.315382
16.711828
13.001334
6.821918
6.836863
0.000000
12.632422
16.122221
7.926248
4.997171
11.311253
2.571352
7.101129
0.000000
9.004218
3.012246
0.000000
0.000000
0.000000
7.254305
17.141169
0.000000
0.000000
12.322303
3.710335
6.369089
8.496446
24.589691
13.439095
12.478942
8.237499
10.835268
6.848266
4.953898
10.699114
4.509172
8.729598
7.081401
6.060984
8.718451
8.468014
6.693135
3.985384
10.230623
1.972154
6.139410
6.492620
7.417590
8.526730
17.323514
1.125466
15.367020
9.208676
9.102176
10.928474
5.789827
4.515517
10.989683
6.196483
7.319813
3.427375
9.660332
4.800175
4.830869
3.058222
5.686892
12.524952
8.129719
3.774106
7.542304
9.803431
16.200743
10.246752
5.406032
1.587087
5.850420
0.000000
5.743182
9.725278
8.116375
6.630385
14.943746
10.833894
1.970664
3.968672
15.588463
12.097492
5.374104
7.332751
1.997080
7.880258
1.351832
6.187451
12.602311
5.036009
6.358780
9.668805
10.967207
9.923390
4.364915
5.395140
2.938479
3.510815
13.213169
14.547474
5.839911
4.908164
4.697961
8.261785
4.073436
6.647883
4.894565
8.699396
11.790741
13.811536
16.569263
5.470466
9.683214
9.781819
2.867700
7.124669
5.917114
4.454626
2.877896
0.000000
7.595870
11.670861
1.323555
5.841507
13.104875
0.000000
9.295367
4.432962
8.836856
12.389993
11.139485
0.741885
0.000000
4.637780
0.000000
15.532174
15.446588
8.470492
0.000000
16.931365
13.747184
0.000000
20.508567
8.797076
9.798647
6.580714
2.862239
0.000000
10.825568
10.163436
5.047043
1.930660
3.612604
5.246319
4.845053
2.225548
9.012318
9.212327
6.491305
2.554475
7.706252
11.999276
1.933072
17.152300
7.409235
8.318000
7.052377
5.628563
4.095244
4.190288
3.755136
12.268151
5.081382
5.637030
10.145513
22.643299
17.120918
1.714540
11.163273
18.534727
12.611360
9.763657
3.708630
11.880369
3.110820
6.837605
0.000000
15.524297
10.312687
11.851517
16.461889
10.918994
6.239807
4.471923
7.583071
11.459788
0.000000
9.914254
9.909234
9.151923
14.367946
11.770215
13.305375
0.000000
13.202495
7.412648
11.374085
4.373310
14.624610
8.603109
16.208972
6.160225
13.660628
4.298269
2.271411
7.728477
5.083112
0.000000
2.221708
4.265422
6.448089
2.195759
7.782180
3.191585
8.373608
11.158971
7.084131
0.000000
5.621915
7.090524
7.684940
7.075910
0.000000
3.733938
7.300121
7.853155
11.148600
8.689283
5.502866
8.169698
2.456548
8.953458
5.192399
12.045773
7.105385
0.000000
13.278378
7.506514
2.628065
4.534930
8.113185
6.303807
8.729578
1.608444
6.575422
0.000000
3.232995
5.789177
3.372402
5.135692
0.000000
4.388123
3.488088
7.025312
6.636045
3.763941
2.844914
2.149891
5.724917
5.586289
6.508609
4.017707
0.000000
9.608526
18.116804
15.255026
0.000000
0.000000
8.747967
16.161879
12.361668
4.329384
5.836498
0.000000
15.641512
5.121713
4.634970
7.183960
0.000000
12.866665
16.503589
10.775400
9.870068
6.490329
3.677741
5.480783
6.952136
11.650300
13.899636
16.733902
10.560366
16.152454
6.759098
3.778482
6.035794
7.787751
11.288251
4.062455
0.000000
4.143553
3.381060
0.000000
7.343083
6.744660
16.951095
17.037795
8.969116
7.107471
0.000000
7.893558
16.497814
6.294811
22.235703
14.094973
0.000000
5.941795
1.312413
2.608561
6.883016
2.067527
3.453729
6.138420
0.000000
6.219522
13.446481
0.000000
8.388407
7.872189
9.231756
0.000000
5.653377
5.198848
4.670786
2.976409
10.312586
0.000000
12.727297
5.672550
2.305222
8.433524
5.315936
0.000000
8.600143
5.562621
1.869890
3.635927
11.052742
8.793013
7.366415
0.000000
7.506312
10.547383
6.369141
5.384066
4.061347
4.623422
6.716938
2.032309
7.636587
10.768528
0.000000
6.549085
3.512556
0.000000
3.918145
8.202805
0.000000
11.504087
8.999202
11.431927
4.183145
9.118934
7.041171
5.511709
1.477710
9.157398
8.450054
6.069063
13.542555
18.474643
14.308509
9.033530
9.458926
0.000000
7.071045
3.326276
0.000000
0.000000
6.967293
11.432638
12.268682
5.610963
6.035038
0.000000
12.121179
5.920586
5.597240
7.538893
0.000000
3.957623
6.200513
4.848206
10.841698
7.205598
10.703279
9.236560
0.000000
5.599487
6.401998
5.224058
3.489302
0.000000
0.263209
8.662395
0.000000
8.300557
4.340174
5.550375
7.586052
1.680550
0.000000
8.362095
6.456129
4.645830
2.109670
0.000000
3.556277
7.599782
0.000000
10.620914
7.159411
3.699563
5.753959
0.803114
0.000000
16.918206
0.000000
0.000000
19.123697
12.179284
13.215573
7.964197
5.727315
21.553287
15.406054
0.000000
5.781239
4.731622
12.983058
0.000000
8.788990
5.175094
9.675723
7.545506
6.406145
7.736331
8.487902
3.231337
8.722682
9.763773
9.033228
0.000000
4.083435
2.263962
0.000000
8.483163
5.259240
2.859336
0.000000
3.626044
0.000000
5.846125
4.190335
4.431522
13.719161
3.810870
10.861704
6.895811
6.503509
4.629772
6.305372
8.116283
8.233602
11.162355
8.571551
0.000000
16.461567
10.804771
13.581937
7.739937
13.846976
16.745017
0.000000
8.393949
5.193418
6.105369
9.158614
21.361065
3.391663
3.435837
5.240232
2.500442
5.376228
4.746138
0.000000
8.486204
5.705637
2.289364
9.617472
0.000000
3.136870
0.000000
2.707783
7.288014
11.976899
7.536746
0.000000
3.904638
10.369633
14.968416
8.838371
10.031312
7.918936
11.483450
0.000000
9.094013
6.155476
6.399505
0.000000
0.000000
10.569959
0.000000
8.932256
0.000000
5.041981
0.000000
8.505817
0.000000
1.891051
11.709977
5.972350
5.701458
7.939912
16.808036
5.865649
9.237715
3.838897
7.558557
3.259660
7.288306
3.934427
5.720853
4.492988
6.144835
4.096108
11.773796
11.264936
12.987314
13.017096
10.976905
2.384818
4.557576
2.314660
5.594864
5.250917
1.261558
9.931437
10.745512
4.970165
0.000000
7.252308
1.222027
2.544143
19.006320
5.262239
17.394468
12.288918
11.988540
5.378416
3.435138
13.426857
16.150804
19.815778
9.912778
16.618781
9.420508
10.879846
21.373284
2.327714
0.759392
4.993579
4.593155
2.339163
5.457687
2.244913
7.432896
2.546913
8.121380
6.676824
4.692725
8.254467
8.916688
6.781121
4.052239
1.979182
2.252983
2.149310
4.361553
6.846085
0.000000
4.802321
3.694697
6.733281
7.561952
7.528807
7.234743
8.230172
8.325484
9.389159
0.000000
0.993894
3.579051
13.661588
8.366412
0.000000
4.342299
4.430569
6.712230
6.007798
9.310542
12.514862
8.599794
10.002978
12.052049
14.920989
0.000000
8.023862
5.933595
9.740646
0.000000
12.572866
8.454469
6.022567
0.273691
2.380848
6.389314
0.000000
0.000000
19.296837
6.133898
14.953516
6.404872
9.877339
17.981407
18.396637
8.825826
13.001293
10.662120
0.000000
0.000000
8.501073
17.091602
13.208500
3.945426
12.292646
0.000000
22.563482
6.161986
0.000000
10.459329
3.595669
18.987904
1.044230
3.947328
1.654395
3.660155
2.879013
5.279288
2.456384
10.805802
5.148494
2.420766
3.026762
4.174076
5.936102
4.768305
4.734888
4.698763
6.689259
0.000000
10.253672
9.092137
11.836044
4.143833
5.928598
5.775116
8.558447
0.000000
0.000000
8.206357
10.053205
0.000000
7.781568
10.120055
8.172213
7.533552
4.700551
5.860395
0.000000
1.333643
3.642212
3.965594
3.059291
2.632605
2.367921
6.801294
1.437835
0.000000
2.605105
6.667244
7.502266
11.110082
7.458852
8.872824
6.285418
4.709381
6.727471
1.929373
5.454480
6.858381
7.156290
3.786934
6.522855
2.983928
6.960564
7.811470
3.759052
2.815905
0.000000
6.065244
5.148318
4.676530
5.357049
3.361757
4.783500
1.793935
0.000000
3.745714
7.913261
7.589690
6.720859
8.031355
8.628650
5.549070
8.765990
9.090682
0.000000
5.038675
10.638099
5.935676
4.661365
5.772316
3.457947
9.057308
9.257314
8.603313
9.528964
7.331025
12.119635
8.976959
5.519866
0.000000
7.382266
9.361149
0.000000
11.000131
4.033259
0.000000
3.178663
4.693047
5.517169
8.544488
0.000000
0.561003
10.812055
12.321814
0.000000
2.736541
6.257740
0.806200
6.016077
0.000000
7.665572
8.058495
3.521652
8.525964
7.148213
6.594059
7.386886
3.582541
6.073584
5.584167
6.470350
5.241158
2.875095
4.898152
3.410698
5.777436
4.901495
4.174118
6.296938
3.033731
3.100836
5.200520
3.646024
5.540763
1.989212
1.910969
6.270742
2.527826
4.192453
3.533665
3.211753
2.610223
1.992232
1.739201
2.507260
4.354453
3.610588
5.098823
4.296537
6.230152
4.183863
5.756248
5.301606
4.484612
6.795188
4.925184
6.675767
3.582668
2.754713
5.969389
5.658147
5.143688
1.833570
3.291015
5.559538
2.480058
6.275279
0.000000
6.808881
3.387947
3.734270
6.693829
5.597697
9.361049
6.063684
8.065993
7.282930
2.169919
1.525488
1.681878
1.375308
6.983973
9.283393
7.360922
6.472621
5.593703
6.019791
8.579872
0.000000
7.384935
4.171612
6.602441
6.828648
5.473241
2.021148
4.364498
10.144388
11.156095
7.457151
3.067018
5.018035
6.104130
7.278427
8.044037
0.000000
5.419948
5.599852
5.031222
2.410937
2.574405
0.000000
3.952882
4.225319
6.968724
7.396603
5.124809
3.504857
5.412178
4.138294
6.330634
3.501003
7.695921
6.080028
2.915493
5.409287
0.000000
4.019714
0.000000
2.421379
4.978079
7.769776
4.973810
6.859820
11.913185
9.515694
4.979403
5.773601
5.178557
8.208298
2.189409
3.535349
8.686602
6.707480
2.961776
6.624247
9.066356
0.000000
10.366603
8.339770
2.149739
4.146172
10.220949
7.368069
6.314078
5.506559
0.000000
0.572625
11.849953
5.953039
8.721682
0.000000
12.093789
0.000000
13.630713
12.055575
7.687332
7.116075
4.329484
7.682196
16.417564
9.054193
10.722027
0.000000
8.848214
9.549106
8.479156
5.298641
5.629206
2.859436
12.807730
8.900786
3.285452
8.234480
0.000000
0.000000
1.163683
8.115522
8.059081
9.648742
8.557298
17.293398
0.000000
11.028110
0.000000
5.057812
0.000000
1.208166
0.305052
10.901823
1.411848
6.822134
0.000000
3.844464
0.000000
1.048460
1.551058
3.998355
8.070422
6.989799
1.125204
2.241545
1.097126
0.003721
0.001502
0.002986
13.449545
12.936741
14.167953
5.158475
2.214979
2.456386
15.043101
11.500754
13.596166
7.041401
5.606452
0.000000
35.573621
31.388627
37.931936
13.311410
26.026391
14.715703
2.600847
2.991053
2.693838
0.000000
5.034139
0.000000
9.162588
5.558392
11.608967
13.754089
10.311392
9.226519
0.025903
0.026440
0.046893
10.838992
12.859492
11.138526
5.520889
4.333194
2.411811
8.041624
3.989816
10.887912
4.221596
7.571202
13.313671
7.199611
3.586456
2.950933
3.918419
32.204153
34.373597
30.809204
7.604075
6.008286
5.967637
6.088659
4.781617
2.660571
8.278349
9.705632
8.940720
8.233496
1.943521
3.508754
17.587061
19.000649
19.341663
2.884894
6.153793
3.760010
10.235536
10.478576
9.382089
0.000000
2.972928
0.000000
15.900829
12.297010
10.228880
5.676921
4.379997
5.527868
4.229750
7.927437
1.664740
1.151707
3.909048
0.168562
0.108941
0.202876
3.342535
10.004593
8.591567
0.005600
0.003754
0.007459
4.960711
8.555539
2.873869
2.493986
5.197473
1.891277
3.427736
2.091242
19.714963
17.996097
20.688371
1.475012
0.000000
1.273227
0.000000
2.272117
0.000000
5.026921
1.803434
2.085182
0.789207
1.256478
2.462845
0.716274
2.166201
5.785244
4.233329
5.414071
23.143676
11.698258
18.198726
16.634519
6.638075
13.323797
14.294348
23.592452
16.710869
10.263580
5.228108
10.235685
1.179891
2.277877
6.299377
3.797758
2.932919
6.623627
3.663825
7.386934
3.993034
2.399427
2.970560
17.113707
13.118370
4.123376
10.140818
10.547570
8.494204
12.561979
13.859722
1.341419
2.821590
7.561877
32.516089
24.062590
13.342245
3.020152
3.778972
6.287804
7.944532
7.253674
3.657322
3.643837
8.218109
9.818038
9.853538
6.293600
5.174331
8.100538
5.222579
1.712257
3.172420
1.449956
6.630318
1.065560
2.431878
2.476142
1.443067
4.659434
5.171472
2.522115
2.875436
3.966749
5.452862
12.944914
7.801072
4.441961
7.036110
3.488673
11.075989
9.598978
7.363800
6.015910
6.511024
2.653320
2.773549
6.441050
2.971103
1.753959
7.748808
9.008306
3.626141
5.568895
6.138522
19.635681
14.790802
25.960985
19.784352
23.983812
20.391243
3.266426
5.360609
5.853623
22.396266
23.818464
25.596622
11.187284
9.669509
13.231366
4.237787
7.853051
6.355516
9.183216
9.074824
10.003547
21.625092
22.433001
21.518338
2.168419
8.257383
22.152262
21.647024
6.750196
1.349317
9.468225
10.496017
32.517822
26.037124
24.063181
20.934419
29.219428
33.093315
21.650940
15.653423
36.993222
26.297444
25.654171
17.104091
15.894302
13.101454
13.802395
6.932245
6.327904
10.515564
9.613556
14.158236
15.194871
16.684109
7.923622
8.043222
11.091792
9.565212
19.165070
25.409356
22.155505
8.262005
33.725199
36.050578
28.057670
9.512136
8.194252
11.244027
16.697093
14.172518
9.483767
1.375002
1.765050
12.675112
14.746389
35.577422
33.725429
16.620619
12.315782
19.711858
16.823385
10.256795
2.703050
1.790559
3.883647
6.206317
6.418920
4.783443
2.703285
5.945351
6.527023
8.446662
8.157326
8.754258
7.422849