# vtk DataFile Version 2.0
Unstructured Grid
ASCII
DATASET UNSTRUCTURED_GRID
POINTS 15032 double
-0.1 0.1 0
0.1 0.1 0
0.1 -0.1 0
-0.1 -0.1 0
-1 1 0
1 1 0
1 -1 0
-1 -1 0
0 1 0
1 0 0
0 -1 0
-1 0 0
0 -0.410731 0
0.410731 0 0
0 0.410731 0
-0.410731 0 0
0 -0.239274 0
0 -0.1 0
-0.05 -0.169637 0
-0.05 -0.1 0
-0.075 -0.134819 0
-0.141596 -0.156251 0
-0.111747 -0.134819 0
-0.159969 -0.099159 0
-0.0989054 -0.184206 0
-0.141596 -0.124748 0
-0.129948 -0.0969945 0
-0.1 0 0
-0.1 -0.05 0
-0.148261 -0.0522847 0
-0.1 -0.075 0
-0.123593 -0.0625 0
-0.125075 -0.0311878 0
-0.143879 -0.0765949 0
-0.176977 -0.0700109 0
-0.19054 -0.1405 0
-0.169445 -0.00571383 0
-0.198904 -0.102341 0
-0.177287 -0.0373849 0
-0.222572 -0.00936513 0
-0.218938 -0.054095 0
-0.0784064 -0.163649 0
-0.0697196 -0.19281 0
-0.0976812 -0.233853 0
-0.0290998 -0.207399 0
-0.135172 0.00260404 0
-0.1 0.05 0
-0.165232 0.0516938 0
-0.254007 -0.134415 0
-0.0599675 -0.2295 0
0.0349727 -0.178126 0
-0.221294 -0.127245 0
-0.237555 -0.0901081 0
-0.22651 -0.181654 0
-0.0720625 -0.290271 0
-0.00718642 -0.170606 0
-0.284198 -0.0431768 0
-0.0757936 -0.257939 0
-0.12416 -0.279902 0
-0.0327868 -0.269357 0
0.00866868 -0.203657 0
0.0614873 -0.231759 0
0.0395999 -0.209209 0
0.031201 -0.239258 0
0.0156257 -0.287742 0
0.0558557 -0.273922 0
0.0855785 -0.186478 0
0.05 -0.1 0
-0.0277942 -0.134819 0
-0.253325 -0.059137 0
-0.254678 -0.0239143 0
-0.292164 -0.0964273 0
-0.261229 0.033242 0
-0.291836 0.000780194 0
0.0572119 -0.343335 0
0.124178 -0.26159 0
0.0204246 -0.137748 0
0.0453645 -0.308847 0
-0.00229502 -0.344498 0
0.0993743 -0.309573 0
0.0272714 -0.334341 0
0.00421886 -0.315347 0
-0.0136189 -0.291817 0
-0.00220749 -0.266739 0
-0.0430114 -0.297492 0
0.0230349 -0.263378 0
-0.0687569 -0.339017 0
-0.0260035 -0.323897 0
0.0252941 -0.376698 0
-0.0370787 -0.360586 0
0.0880327 -0.256762 0
0.111236 -0.220767 0
0.0666112 -0.143917 0
0.0655221 -0.433013 0
-0.0864284 -0.399018 0
-0.00833979 -0.378117 0
-0.0434337 -0.403326 0
0.181131 -0.22107 0
0.0363464 -0.411329 0
0.0172445 -0.4675 0
0.0772989 -0.386698 0
0.035834 -0.442488 0
0.00617522 -0.439859 0
0.0653989 -0.483875 0
-0.0258781 -0.431436 0
-0.017683 -0.46545 0
-0.0686841 -0.438633 0
-0.00340377 -0.52074 0
-0.0679378 -0.371861 0
-0.119376 -0.356712 0
0.146414 -0.167701 0
0.146135 -0.232166 0
0.180872 -0.280991 0
0.155185 -0.199972 0
0.17136 -0.250988 0
0.200938 -0.170209 0
0.124091 -0.191096 0
0.151689 -0.273734 0
0.126633 -0.293261 0
0.158564 -0.308394 0
0.222729 -0.251211 0
0.108967 -0.154317 0
0.129363 -0.328756 0
0.212294 -0.329351 0
0.0957558 -0.348261 0
0.170629 -0.356816 0
-0.139103 -0.446394 0
0.142003 -0.120964 0
0.0927033 -0.129103 0
0.131138 -0.37052 0
-0.105143 -0.431182 0
0.172174 -0.425024 0
-0.127225 -0.396807 0
-0.098489 -0.491551 0
0.160426 -0.391168 0
0.117121 -0.421496 0
0.218899 -0.389844 0
-0.185595 -0.364564 0
-0.0921017 -0.460296 0
-0.120743 -0.470723 0
-0.167722 -0.487085 0
-0.134278 -0.507488 0
-0.0563474 -0.483883 0
-0.151222 -0.371294 0
-0.155267 -0.320393 0
-0.177438 -0.414052 0
-0.182699 -0.549247 0
-0.091624 -0.555123 0
-0.0262907 -0.497162 0
-0.057688 -0.527573 0
-0.165208 -0.520576 0
-0.218499 -0.507737 0
-0.137483 -0.557161 0
-0.105286 -0.524442 0
-0.0318534 -0.594073 0
-0.0554712 -0.56498 0
-0.0888625 -0.616221 0
-0.016807 -0.557725 0
-0.0639217 -0.595974 0
-0.0928769 -0.585791 0
-0.138136 -0.607241 0
-0.044935 -0.644847 0
0.0321417 -0.599276 0
0.0289776 -0.553396 0
0.00098139 -0.586377 0
-0.00666782 -0.627634 0
0.000940826 -0.695694 0
-0.0138151 -0.662888 0
-0.057406 -0.702217 0
0.0443026 -0.656469 0
-0.0292822 -0.689567 0
-0.0536435 -0.672994 0
-0.0236903 -0.739587 0
-0.0793388 -0.649623 0
-0.086752 -0.683585 0
0.0141985 -0.650216 0
0.0241718 -0.677795 0
0.0343706 -0.628691 0
0.0403656 -0.722838 0
0.0789574 -0.610521 0
0.0591527 -0.690651 0
0.0626321 -0.634251 0
0.0752587 -0.663337 0
0.0936144 -0.638085 0
0.129111 -0.601531 0
0.5 -1 0
0.12367 -0.679229 0
-0.119184 -0.642925 0
-0.5 -1 0
0.0926618 -0.692004 0
-0.101027 -0.738495 0
0.0746966 -0.7213 0
0.0599199 -0.775407 0
0.128014 -0.733792 0
-0.1841 -0.654528 0
-0.153509 -0.638281 0
-0.189925 -0.600918 0
-0.143562 -0.693932 0
-0.146436 -0.210216 0
-0.131989 0.075 0
-0.154836 0.137199 0
-0.171381 0.0958261 0
-0.133404 0.109776 0
-0.101513 0.156786 0
-0.0306919 -0.238732 0
-0.26342 -0.105712 0
-0.270893 -0.0797108 0
-0.286914 -0.129312 0
-0.29691 -0.0684962 0
-0.329892 -0.0360863 0
-0.337932 -0.0898351 0
-0.277919 -0.179956 0
-0.318559 -0.117502 0
-0.371231 -0.133769 0
-0.31666 -0.160716 0
-0.340424 -0.140112 0
-0.360555 -0.187335 0
-0.316899 -0.209823 0
-0.326967 0.0645638 0
-0.104453 -0.316953 0
0.0532572 -0.371501 0
0.0317754 -0.503759 0
0.0704802 -0.530838 0
0.222421 -0.207862 0
0.289924 -0.229058 0
0.270178 -0.155659 0
0.252762 -0.229322 0
0.237899 -0.174075 0
0.271753 -0.286928 0
0.271098 -0.194767 0
0.225425 -0.114717 0
0.271527 -0.255069 0
0.245701 -0.271182 0
0.21447 -0.283909 0
0.241987 -0.306753 0
0.321138 -0.270646 0
0.287672 -0.343086 0
0.333788 -0.182663 0
0.222111 -0.146403 0
0.249567 -0.133258 0
0.294674 -0.112435 0
0.259451 -0.0954022 0
0.184358 -0.126438 0
0.248241 -0.345778 0
0.299704 -0.174529 0
0.310537 -0.204613 0
0.325677 -0.141174 0
0.323442 -0.236409 0
0.375483 -0.257109 0
0.33907 -0.211549 0
0.35307 -0.237691 0
0.381307 -0.188899 0
0.348688 -0.265393 0
0.367202 -0.213303 0
0.343074 -0.310824 0
0.41217 -0.223014 0
0.371363 -0.291258 0
0.426479 -0.280584 0
0.387618 -0.344992 0
0.303526 -0.0491936 0
0.21243 -0.052195 0
0.22044 -0.359069 0
0.194844 -0.373213 0
0.245491 -0.375749 0
0.192109 -0.402882 0
0.269212 -0.362814 0
0.254094 -0.424112 0
0.309092 -0.381631 0
0.219277 -0.424664 0
0.271919 -0.395995 0
0.237543 -0.478482 0
0.306691 -0.437747 0
0.296217 -0.141862 0
0.361493 -0.15571 0
0.288924 -0.07939 0
0.34314 -0.0869782 0
0.257814 -0.0457176 0
0.169058 -0.0782237 0
0.228988 -0.0813647 0
0.199061 -0.0790683 0
0.18472 -0.0551715 0
0.1 0 0
0.1 -0.05 0
0.193951 -0.0106312 0
0.142908 -0.0436098 0
0.326795 -0.34657 0
0.298415 -0.409284 0
0.280665 -0.42988 0
0.344692 -0.411264 0
0.261095 -0.455947 0
0.287219 -0.45518 0
0.275297 -0.494365 0
0.324039 -0.476717 0
0.422964 -0.141521 0
0.324835 -0.110992 0
0.352973 -0.125309 0
0.315765 -0.0850939 0
0.33126 -0.0597753 0
0.379464 -0.0549193 0
0.333833 -0.0113957 0
0.388345 -0.13179 0
0.398522 -0.162033 0
0.418964 -0.0893042 0
0.376082 -0.0989542 0
0.413638 -0.190667 0
0.46316 -0.209121 0
0.125653 -0.075 0
0.1 -0.025 0
0.120068 -0.0375 0
0.140981 -0.00506988 0
0.119258 -0.0125 0
0.1 0.05 0
0.12248 0.0135488 0
0.160657 0.0329829 0
0.1 0.025 0
0.120524 0.0375 0
0.139664 0.0270077 0
0.1554 0.0115878 0
0.14288 0.055577 0
0.166929 -0.0129617 0
0.183619 0.0159969 0
0.120441 0.0604639 0
0.139253 0.0928814 0
0.1 0.075 0
0.230156 0.0187338 0
0.186872 0.0719007 0
0.18648 0.043877 0
0.206276 0.0277591 0
0.211308 0.00496969 0
0.232238 0.0603468 0
0.221144 -0.0234306 0
0.209447 0.051869 0
0.232111 -0.00372919 0
0.212628 0.0781906 0
0.245765 -0.0242322 0
0.232841 -0.0426762 0
0.282948 -0.0175007 0
0.24301 -0.063225 0
0.263193 0.0102923 0
0.266966 -0.0684693 0
0.280491 -0.0498122 0
0.250156 0.0997359 0
0.189978 0.115062 0
0.304416 0.0186763 0
0.357024 -0.338756 0
0.377009 -0.318876 0
0.350244 -0.374906 0
0.41606 -0.318226 0
0.396235 -0.300559 0
0.391125 -0.276319 0
0.403394 -0.250356 0
0.387118 -0.230052 0
0.439357 -0.24682 0
0.402132 -0.401431 0
0.485375 -0.283711 0
0.371777 -0.396796 0
0.379986 -0.444751 0
0.390747 -0.374273 0
0.438633 -0.370164 0
0.413388 -0.357046 0
0.438649 -0.339283 0
0.48662 -0.354748 0
0.447855 -0.306763 0
0.45643 -0.272671 0
0.484144 -0.243475 0
0.468101 -0.330057 0
0.50879 -0.31883 0
0.231743 -0.545079 0
0.168578 0.0949095 0
0.151078 0.134931 0
0.364343 0.0478734 0
0.281216 0.0618367 0
0.527025 -0.193696 0
1 -0.5 0
0.245359 -0.512714 0
0.188266 -0.507742 0
0.288836 -0.550051 0
0.201397 0.185434 0
0.339234 0.0233114 0
0.371358 0.000538672 0
0.32427 0.0637245 0
0.547273 -0.26168 0
0.497575 -0.211685 0
0.519436 -0.239653 0
0.484351 -0.156935 0
0.5162 -0.272346 0
0.555973 -0.222082 0
0.543227 -0.300487 0
0.184364 0.152086 0
0.360223 -0.0294103 0
0.391816 -0.0255913 0
0.415864 -0.0529847 0
0.473842 -0.0663276 0
0.442706 -0.0689854 0
0.459357 -0.112472 0
0.45435 -0.0216855 0
0.368934 0.11806 0
0.300695 0.109478 0
0.613145 -0.255398 0
0.554508 -0.36316 0
0.228322 0.139814 0
0.141069 0.195224 0
0.355345 0.0837051 0
0.415514 0.0797699 0
0.335089 0.111582 0
0.386063 0.0914194 0
0.341947 0.167403 0
0.391303 0.0616159 0
0.391547 0.0278219 0
0.422716 0.0449441 0
0.418888 0.131352 0
0.315951 0.142265 0
0.473222 0.0735467 0
0.289894 0.195223 0
0.272089 0.142731 0
0.311444 0.172937 0
0.335294 0.217562 0
0.283996 0.167958 0
0.245623 0.190528 0
0.256682 0.165426 0
0.228582 0.168033 0
0.301937 0.0811674 0
0.277417 0.0942746 0
0.267943 0.117754 0
0.250728 0.133444 0
0.233908 0.11687 0
0.211629 0.123598 0
0.227954 0.0949525 0
0.206298 0.145787 0
0.242955 0.0792417 0
0.256794 0.0589059 0
0.207524 0.102284 0
0.188745 0.0949334 0
0.243302 0.0389345 0
0.27191 0.0361677 0
0.295986 0.0419601 0
0.319647 0.0373592 0
0.341069 0.0465504 0
0.579198 -0.247939 0
0.575921 -0.284282 0
0.607759 -0.198926 0
0.576644 -0.326823 0
0.538782 -0.333639 0
0.520121 -0.362529 0
0.491282 -0.410688 0
0.536539 -0.405074 0
0.155775 0.166688 0
0.171655 0.19293 0
0.198171 0.235391 0
0.159079 0.230294 0
0.104087 0.158108 0
0.568421 -0.180434 0
0.621645 -0.304781 0
0.170705 0.293579 0
0.0955877 0.24074 0
0.616821 -0.128562 0
0.533584 -0.142932 0
0.622031 -0.379383 0
0.175075 0.260066 0
0.224959 0.283612 0
0.13026 0.271263 0
0.125652 0.2253 0
0.0930056 0.198721 0
0.600968 -0.162286 0
0.542208 -0.169852 0
0.566596 -0.147197 0
0.513067 -0.164347 0
0.505038 -0.136119 0
0.492708 -0.183889 0
0.529897 -0.0951754 0
0.478844 -0.130774 0
0.462535 -0.178472 0
0.451678 -0.140173 0
0.497986 -0.103819 0
0.438437 -0.164614 0
0.439571 -0.190523 0
0.553669 -0.117361 0
0.506452 -0.0718475 0
0.585545 -0.121269 0
0.49681 -0.0297223 0
0.575658 -0.069969 0
[...]
POINT_DATA 15032
SCALARS Eabs float 1
LOOKUP_TABLE jet
0.104720
0.078540
0.104720
0.078540
1.034973
1.193770
1.193812
1.035102
0.792813
0.593940
0.792574
0.972142
1.254491
0.356275
1.254140
1.407745
0.714144
0.104720
0.492035
0.104720
0.329932
0.839608
0.520215
0.758370
0.752238
0.691896
0.451554
0.104720
0.078540
0.549996
0.052360
0.289303
0.284157
0.542174
0.848277
1.095784
0.732197
1.071255
0.816253
1.157423
1.150633
0.548010
0.684225
0.971391
0.638731
0.387453
0.104720
0.717610
1.390708
0.828925
0.375728
1.243220
1.286079
1.340297
1.091581
0.402696
1.456078
0.991826
1.204269
0.915369
0.536975
0.567103
0.507795
0.649636
0.870431
0.739269
0.357916
0.104720
0.228930
1.344036
1.340550
1.482960
1.371515
1.475234
0.973323
0.591431
0.195493
0.883950
1.094533
0.789332
1.003604
0.990765
0.950662
0.830993
1.040730
0.762792
1.219189
1.084256
1.129632
1.207559
0.622617
0.463359
0.194606
1.195897
1.362847
1.195696
1.308808
0.419050
1.195365
1.330713
1.062221
1.261909
1.300726
1.293364
1.331149
1.369116
1.390689
1.408897
1.289567
1.349380
0.274275
0.472150
0.592471
0.367504
0.511205
0.295766
0.350841
0.599756
0.694077
0.699976
0.481533
0.227538
0.803791
0.699502
0.918861
0.827818
1.432918
0.153091
0.130067
0.926065
1.414515
1.008823
1.405732
1.433720
0.938304
1.085126
0.855227
1.430867
1.424220
1.433300
1.404927
1.417655
1.418542
1.407580
1.357113
1.433493
1.311669
1.416481
1.408181
1.433239
1.376514
1.306143
1.371669
1.425370
1.422086
1.427541
1.362307
1.429178
1.405698
1.391152
1.302940
1.374314
1.419533
1.407292
1.426436
1.411798
1.354022
1.379609
1.278757
1.405712
1.333883
1.329371
1.262567
1.330020
1.264580
1.403900
1.386616
1.415983
1.349908
1.401334
1.387615
1.410275
1.402122
1.399552
1.361162
1.309690
1.388367
1.278358
1.287502
1.389886
1.130476
1.367599
1.296264
1.368374
1.113779
1.218980
1.207472
1.130071
1.075240
0.407377
0.848666
0.848359
0.545475
0.606138
0.786227
1.406209
1.421364
1.477110
1.490268
1.532426
1.524634
1.470685
1.515805
1.464134
1.504507
1.504955
1.443562
1.483087
1.528240
1.244978
1.063675
1.362119
1.351913
0.378677
0.421556
0.308917
0.423053
0.317252
0.545767
0.361225
0.235347
0.474496
0.520538
0.572462
0.612425
0.496184
0.669940
0.367118
0.267242
0.272574
0.293736
0.256538
0.208175
0.708348
0.344566
0.385830
0.329718
0.435487
0.469685
0.401749
0.439704
0.389865
0.483540
0.410295
0.570111
0.430484
0.526193
0.504312
0.624030
0.286543
0.191158
0.771759
0.841189
0.788500
0.924037
0.732900
0.900279
0.746226
0.943247
0.812781
1.045463
0.879726
0.312358
0.357408
0.278249
0.320718
0.243435
0.138903
0.219418
0.181959
0.153332
0.052360
0.078540
0.161786
0.082091
0.653812
0.820455
0.885982
0.789076
0.967554
0.938160
1.036646
0.951793
0.378116
0.314724
0.337564
0.301052
0.308907
0.339918
0.308907
0.358717
0.377316
0.364188
0.343086
0.401673
0.429311
0.059477
0.052360
0.038861
0.075827
0.036289
0.052360
0.042315
0.111383
0.052360
0.039763
0.074377
0.101049
0.084735
0.120264
0.146645
0.043014
0.102307
0.052360
0.210337
0.162149
0.153649
0.179985
0.185908
0.217203
0.199310
0.187241
0.212403
0.198902
0.228862
0.215208
0.266920
0.229996
0.247336
0.255892
0.266269
0.249696
0.199277
0.286011
0.622662
0.576140
0.704037
0.566205
0.538794
0.499128
0.461613
0.433936
0.460736
0.734267
0.507753
0.740114
0.840016
0.682608
0.656032
0.639099
0.598662
0.613979
0.542484
0.493381
0.462857
0.576794
0.553601
1.182381
0.151108
0.192702
0.330393
0.268319
0.437572
0.695610
1.107209
1.167983
1.131939
0.327906
0.312908
0.333860
0.304204
0.487586
0.439562
0.464930
0.407936
0.495312
0.460639
0.527221
0.252196
0.327171
0.346076
0.359796
0.388751
0.374045
0.386472
0.378441
0.343951
0.297038
0.493792
0.610233
0.263353
0.357669
0.328066
0.361402
0.321715
0.347310
0.356732
0.347076
0.345964
0.363070
0.372906
0.324759
0.388792
0.367222
0.297431
0.348087
0.408946
0.329969
0.347593
0.313308
0.303507
0.289494
0.272444
0.275507
0.273710
0.245226
0.230745
0.224582
0.255483
0.234081
0.244031
0.206725
0.178402
0.227028
0.257049
0.279651
0.298831
0.314993
0.482005
0.510648
0.467506
0.556451
0.570393
0.618265
0.713689
0.684936
0.273562
0.344615
0.451141
0.457203
0.241333
0.446966
0.531606
0.640413
0.553286
0.461932
0.423803
0.615150
0.535367
0.564139
0.616458
0.466064
0.398890
0.456799
0.433810
0.438932
0.421130
0.410480
0.422042
0.416654
0.398416
0.409526
0.389664
0.402526
0.394101
0.409524
0.429531
0.404431
0.445459
0.399115
0.439490
0.421180
0.457791
0.438347
0.433774
0.462419
0.417608
0.597413
0.656173
0.569042
0.588237
0.486714
0.393126
0.769630
0.584429
0.078540
0.520738
0.766296
0.312989
0.651714
0.660986
0.819692
0.643291
0.782412
0.774689
0.396471
0.451987
0.267629
0.573929
0.078540
0.133602
0.373261
0.170776
0.978164
0.144405
0.216264
0.912464
0.104720
0.221573
0.471304
0.476448
0.485905
0.493281
0.490303
0.514828
0.516336
0.499943
0.498782
0.515570
0.511367
0.509649
0.533547
0.513701
0.531568
0.556337
0.501242
0.506343
0.390465
0.404690
0.376270
0.422436
0.382005
0.374367
0.382361
0.714129
0.774543
0.697466
0.587518
0.644767
0.558970
0.549017
0.561398
0.588753
0.542582
0.530707
0.527579
0.567359
0.575225
0.557602
0.542504
0.590433
0.530382
0.554558
0.563121
0.585017
0.570215
1.102537
0.442430
0.787629
0.302200
0.629542
0.806757
0.607673
0.840604
0.474035
0.497344
0.475312
0.486572
0.541162
0.412988
0.536002
0.591446
0.877032
1.114292
0.517145
0.467974
0.524631
0.533875
0.558213
0.545715
0.554629
0.552330
0.397540
0.411575
0.404906
0.583482
0.609460
0.576260
1.228461
1.129135
0.959343
0.942412
1.021109
0.525626
0.471876
0.497629
0.454588
0.445011
0.562307
0.574685
0.388463
0.398015
0.412420
0.434186
0.433568
0.398653
0.397875
0.421115
0.384024
0.375950
0.368767
0.355394
0.358379
0.365290
0.472289
0.444266
0.469372
0.444568
1.043925
1.146434
1.332524
1.280938
1.425319
1.357560
1.168900
1.468577
1.320233
1.404419
1.323032
1.425735
1.184283
1.508136
0.507439
0.518219
0.545263
0.429182
0.455253
0.425308
0.445078
0.462742
0.439828
0.451512
0.435081
0.484382
0.477786
0.518349
0.503616
0.519370
0.499038
0.551493
0.695563
0.490855
0.536298
0.520564
0.548720
0.537809
0.436472
0.568286
0.564696
0.574650
0.564368
0.389284
0.405384
0.434623
1.475959
1.516391
0.470987
0.562436
0.534601
0.563078
0.582542
0.512528
1.446604
1.462303
0.474127
0.553484
0.572859
0.549416
0.590422
0.543167
0.556932
0.576361
0.559407
0.577148
0.587495
0.577133
0.590291
0.584619
0.457550
0.513430
0.453053
1.510066
1.491868
1.351707
1.243555
1.216320
1.015816
1.342408
0.976626
0.465595
0.479064
0.496883
0.485303
0.492876
0.508306
0.504007
0.522266
0.513144
0.486469
0.490514
0.502765
0.496568
0.512828
0.513288
0.498752
0.530009
0.526791
0.459416
0.503200
0.549212
0.536233
0.472363
0.484355
0.460397
0.505910
0.472250
0.487530
0.495734
0.477613
0.467158
0.448603
0.432744
0.445098
0.446852
0.456653
0.486590
0.515032
1.506625
1.447415
1.356105
1.534556
1.439510
1.240572
1.487180
1.519671
1.533106
1.526556
1.528123
1.532308
1.497589
1.496768
1.493157
1.351933
0.730963
0.648391
1.114253
1.176936
1.021508
1.146650
1.430179
1.430826
1.396975
1.425797
1.409335
1.424867
1.359589
1.296849
1.282999
1.117801
1.136597
1.361900
1.320641
1.258933
1.275356
1.180527
1.329647
1.224274
1.370256
1.403880
1.401428
1.055817
1.260419
1.133460
1.134855
0.990502
1.012434
0.806181
1.002048
0.788126
0.922249
0.864915
0.902166
0.901146
0.828571
0.845252
0.680718
0.737050
0.674515
0.726562
0.673542
0.714441
0.931959
0.974211
1.075734
0.989305
1.108162
1.206520
1.207948
1.284251
1.130650
1.188171
1.215090
1.176339
1.214400
0.878879
1.316882
1.234677
1.300109
1.395645
1.370421
1.285466
1.334977
1.304131
1.318074
1.235664
1.286653
1.226906
1.249239
1.168072
1.253898
1.071933
1.191543
1.127788
1.221820
1.324698
1.302401
1.349854
1.278796
1.312958
1.259410
1.380488
1.371676
1.375939
1.123224
1.355951
1.354199
1.365647
1.323810
1.362053
1.349197
1.345183
1.355075
1.332055
1.320590
1.325473
1.344390
1.275959
1.341177
1.335547
1.323771
1.344450
1.342499
1.341908
1.322165
1.328228
1.279635
1.306968
1.304061
1.283033
1.300901
1.221425
1.274470
1.250493
1.190659
1.237611
1.207696
1.136255
1.266107
1.294004
1.240731
1.213834
1.153405
1.046464
1.304878
1.306469
1.274274
1.315773
1.330028
1.263482
1.103248
1.299066
1.137965
1.172936
1.067719
0.984256
0.962959
1.040569
1.064764
1.291098
1.330245
1.240390
1.235983
1.265679
1.165396
1.271720
1.206601
1.295356
1.168764
1.193726
1.135725
1.176393
1.151209
1.090615
1.202021
1.208190
1.243142
1.203200
1.047077
1.249688
1.124486
0.982693
1.109041
1.127574
1.112181
1.072241
1.019422
0.973376
1.075324
1.061623
1.031722
0.942013
1.200622
1.032473
1.152977
1.108034
0.879605
0.962341
1.223852
1.167807
1.031273
0.977357
0.847632
0.934208
0.959878
0.838868
1.044442
0.869774
1.071338
1.163072
0.996843
0.900124
1.024842
0.804811
0.957138
0.804632
0.869241
0.734354
0.773765
0.680313
0.748015
0.883212
0.689962
0.723143
0.716750
0.715521
0.697014
0.754643
0.707138
0.788555
0.728152
0.708286
0.704075
0.819856
0.748237
0.765656
0.707082
0.728105
0.715758
0.764666
0.708374
0.746416
0.816727
0.808707
1.150394
1.019422
0.877432
0.717341
0.943127
0.884721
1.107765
0.693521
1.042607
1.308793
1.236056
1.248927
1.373226
1.406805
1.418461
1.413326
1.433751
1.431706
1.457883
1.442956
1.450761
1.439032
1.393634
1.434569
1.397751
1.453901
1.469654
1.468643
1.433292
1.437289
1.383306
1.437129
1.404250
1.350426
1.294126
1.430401
1.421823
1.264516
1.345999
1.417634
1.148574
1.336294
1.349481
1.065326
1.205285
1.256973
1.029389
1.148083
1.120175
0.846645
0.981334
0.958708
0.750909
1.527407
1.523986
1.472151
1.527044
1.331707
1.405164
1.303629
1.210029
1.487257
1.494783
1.482960
1.432121
1.484964
1.477376
1.380395
1.458630
0.253000
0.317819
0.352423
0.572675
0.870006
0.374230
0.361141
0.364039
0.672209
0.731443
0.799379
0.893597
0.814217
0.842281
0.914888
0.978064
0.917215
0.903450
0.668124
0.387473
0.420996
0.456147
0.501734
0.514848
0.593354
0.724467
0.644338
0.617990
0.723208
0.534612
0.730186
0.915144
0.696867
0.615778
0.851223
0.809376
0.880994
0.700290
0.747653
0.811934
0.900074
1.040977
0.985342
1.145377
0.966654
0.817934
0.882292
0.853411
1.054788
1.151095
1.058953
1.078258
1.169118
1.023554
1.008681
1.151934
0.889441
1.234087
1.223058
1.348497
1.192885
1.301646
1.140551
1.226827
1.065281
1.074707
1.276665
0.952152
1.180885
0.895575
0.961550
1.094967
1.260065
1.275380
1.298564
1.293440
1.225768
1.379248
1.157157
1.333071
1.378817
1.335195
1.298137
1.101179
1.406424
1.100476
1.007811
1.231163
0.934678
0.967455
1.018907
0.962821
0.896641
1.048716
0.812375
0.888132
0.787712
1.067664
1.035362
0.970002
1.150245
0.946620
1.346925
1.402207
1.357254
0.641660
1.010148
1.309561
1.123422
1.078051
1.034420
1.167828
0.832860
1.348627
1.341462
1.396506
1.390353
1.385506
1.432091
1.356116
1.316305
1.367973
1.419807
1.417160
1.431819
0.703269
0.629515
0.729796
0.566483
0.933416
1.427055
1.433641
0.584138
0.964029
1.432126
0.516531
0.885015
1.060357
1.432180
1.412691
1.411047
0.533980
0.478709
0.576585
0.780972
1.027140
0.997795
0.950672
1.029335
1.116435
1.419992
1.416106
0.666005
0.546135
1.014202
1.148861
1.310614
0.643745
0.545622
0.503483
0.477209
0.502852
0.627326
0.530591
1.001796
0.904290
1.089527
1.093494
1.150276
1.368772
1.378269
1.335554
1.353170
1.231640
1.407847
1.418160
1.212484
1.179551
1.239471
1.185805
1.426761
1.303833
1.284719
1.287326
1.172368
1.286148
1.193100
1.219020
1.230616
1.284315
1.277350
1.269499
1.428973
1.380786
1.431324
1.184718
0.992750
1.064211
1.300718
1.236492
1.285462
1.218471
1.275889
1.225263
1.229108
1.349062
1.295073
1.210262
1.130436
1.160513
1.108620
0.997432
0.947425
1.436560
1.278534
1.321725
1.266064
1.228880
1.342427
1.325475
1.189880
1.308397
0.897175
0.993092
0.813104
1.055730
1.037729
1.107938
1.197761
1.217647
1.254097
1.276533
1.328869
1.208208
1.307865
1.386331
1.383255
0.879201
0.726585
0.821841
0.708612
0.900671
0.916559
1.434204
1.307783
1.324735
1.123299
1.335794
1.319336
1.332335
1.326393
1.286704
1.345571
1.267860
1.123325
1.341454
1.318753
1.388613
1.358004
1.364998
1.364798
1.400526
1.372426
1.344911
1.301460
1.236136
1.288133
1.175586
1.173232
1.334617
1.334167
1.342826
1.325113
1.317553
1.341042
1.301752
1.342573
1.337250
1.342818
1.345180
1.350950
1.255901
1.341858
1.345061
1.360988
1.310670
1.314329
1.410470
1.412075
1.420282
1.426673
1.396090
1.418985
1.406826
1.373714
1.370797
1.411345
1.305639
1.355360
1.283205
1.363928
1.333467
1.318650
1.260116
1.381699
1.410299
1.398155
1.280355
1.378898
1.413438
1.372854
1.360217
1.329460
1.349052
1.342754
1.325662
1.301971
1.353060
1.303142
1.355668
1.282328
1.309015
1.307041
1.319471
1.343849
1.358710
1.338794
1.386172
1.358818
1.374302
1.401527
1.405797
1.384900
1.396611
1.377122
1.355496
1.348029
1.308837
1.274041
1.276664
1.178730
1.362377
1.368312
1.128449
1.184222
1.056426
1.212198
1.151875
1.232195
1.226834
1.089899
1.193167
1.131128
1.220350
1.224958
0.052360
0.099295
0.110910
0.657641
0.700539
0.654745
0.743485
0.690179
0.619667
0.829363
0.738235
0.612655
0.639930
0.600201
0.739822
0.613781
0.648476
0.603702
0.674331
0.681075
0.712616
0.685628
0.734207
0.659467
0.591492
0.621342
0.604040
0.631708
0.839733
0.628142
0.781524
0.812499
0.796154
0.317417
0.693454
0.522912
0.529331
0.543530
0.500732
0.486125
0.505618
0.517571
0.530065
0.540251
0.552463
0.531396
0.558601
0.558465
0.535427
0.568774
0.576289
0.555952
0.575665
0.567041
0.575138
0.563289
0.587649
0.589621
0.585374
0.583476
0.582762
0.584008
0.592012
0.582683
0.590577
0.587369
0.586702
0.589447
0.588432
0.592843
0.591304
0.593550
0.588083
0.586874
0.589094
0.589498
0.590937
0.591646
0.592423
0.588325
0.619762
0.588947
0.599865
0.588725
0.594007
0.588146
0.591498
0.595982
0.607016
0.591915
0.597285
0.615887
0.607262
0.600198
0.622371
0.602303
0.595329
0.616536
0.627712
0.641506
0.664116
0.651732
0.634206
0.641322
0.673801
0.653620
0.664496
0.672240
0.657243
0.945896
0.711623
0.399283
0.407429
0.420293
0.978322
1.086185
0.585169
0.407878
0.529595
0.542934
0.552321
0.532880
0.541030
0.547606
0.558451
0.546958
0.572898
0.562571
0.537746
0.563923
0.545383
0.576996
0.570824
0.590287
0.583294
0.572778
0.562289
0.573901
0.560495
0.619741
0.589435
0.588924
0.574635
0.594652
0.569333
0.581918
0.586287
0.588362
0.585589
0.582589
0.579001
0.584833
0.589160
0.583742
0.588418
0.589936
0.587825
0.587799
0.557960
0.571290
0.552239
0.587077
0.582048
0.622569
0.589734
0.554799
0.611564
0.576528
0.530078
0.640673
0.669546
0.572753
0.570240
0.599846
0.588708
0.589090
0.589494
0.592841
0.590911
0.592551
0.591643
0.592309
0.593319
0.591497
0.589356
0.593437
0.593653
0.593965
0.593888
0.593993
0.595432
0.588107
0.591582
0.607070
0.595439
0.605468
1.448314
1.390922
1.123210
1.256870
1.273039
1.171273
0.942470
1.293168
1.131442
1.034508
1.030345
0.842692
1.197957
0.830726
1.193811
0.881552
0.607889
1.065608
1.063390
0.900365
1.016995
1.165737
1.334295
1.227235
0.802437
1.357592
1.048583
1.432369
1.488271
1.493612
1.345118
1.105535
1.249285
0.903279
0.656236
0.711142
0.658378
0.640752
1.002792
1.447850
1.173846
0.772956
0.772375
0.809526
0.775526
0.749429
0.689746
0.606952
0.599241
0.624225
0.703421
0.628384
0.615500
1.482020
0.665024
0.881095
0.988955
0.745320
0.762183
0.762959
0.638219
0.668061
0.641799
0.622011
0.627071
0.614038
0.721806
0.710211
0.620678
0.954091
0.600809
0.855351
0.613923
1.469313
1.071022
0.698227
0.652865
0.771899
0.693045
0.613974
0.592714
0.588858
0.590562
1.434920
1.418694
1.080296
1.291674
0.835884
0.952111
0.766832
0.658787
0.780117
1.448825
0.810754
0.917537
0.865595
1.068743
0.926276
0.656679
0.782319
0.649535
1.454599
1.377002
1.128745
0.884745
1.439541
1.390294
1.446600
1.293588
1.440393
1.257229
1.427094
1.413557
1.303248
1.059178
0.898586
0.909967
1.228706
0.737058
0.747057
0.860280
1.271109
1.084220
1.128640
1.048219
0.995259
1.095261
1.053422
1.214347
0.937944
0.910664
0.762050
1.026831
0.927612
1.053727
0.831077
1.163821
1.193922
1.287337
1.244640
1.296324
1.246218
0.898502
1.284360
1.288210
1.292887
1.298858
0.952546
1.295633
1.203921
1.299152
1.267228
1.260548
1.269246
1.203119
0.929103
1.136684
1.200576
1.093722
1.241689
0.967146
0.941804
1.032544
1.038364
1.105163
1.075852
1.081692
1.028589
1.008150
0.962485
0.760141
0.672547
0.729604
0.741502
0.666017
0.774654
0.669743
0.728169
0.701068
0.668114
0.713243
0.680609
0.699294
0.667860
0.843578
0.670224
0.803526
0.730277
0.686190
0.844914
0.763178
0.856925
0.682244
0.670841
0.660797
0.660491
0.688488
0.660495
0.789524
0.768047
0.718064
0.695376
0.974789
0.886472
0.655999
0.953727
0.825648
1.044491
0.699270
1.032802
0.679701
0.924483
0.981964
0.976543
1.116573
1.080410
1.213925
1.145021
1.082141
1.263472
1.083526
1.185489
1.243840
0.668580
0.650234
0.824672
0.668244
0.645579
0.644393
0.742519
0.852633
0.967953
0.994433
0.862048
1.023542
1.082070
1.202711
1.298460
1.180690
1.057035
0.971328
0.815871
0.809465
0.707142
1.132638
1.214006
1.171986
1.113259
1.070186
1.352944
1.331088
1.299494
1.284841
1.184308
1.335733
1.340179
1.351424
1.333276
1.360295
1.379303
1.337986
1.252431
1.301165
1.281540
1.272355
1.212169
1.233366
1.187845
1.220537
0.974462
1.219072
1.111348
1.118416
1.000324
1.028183
1.078147
0.900077
0.883548
1.135618
1.161730
1.042822
1.106036
0.960137
0.880912
0.976501
0.958690
0.884929
0.883356
0.723834
0.822540
0.792692
0.792687
0.753542
0.758015
1.012945
1.054972
1.218823
0.984628
1.017697
1.000968
0.948608
0.912942
0.865800
0.850835
0.919975
1.113468
1.326064
1.337305
1.341859
1.338848
1.343970
1.343099
1.335322
1.340579
1.231716
1.343241
1.311410
1.309324
1.310184
1.321980
1.266512
1.336573
1.341857
1.342236
1.336605
1.277437
1.181285
1.279004
1.234295
1.153358
1.207351
1.180043
1.247988
1.149993
1.200888
1.275132
1.318676
1.254361
1.291312
1.311220
1.306560
1.332272
1.336351
1.329126
1.341881
1.344952
1.296499
1.336619
1.338788
1.342146
1.331328
1.338415
1.322332
1.338932
1.341872
1.339244
1.336188
1.341299
1.328827
1.265618
1.279953
1.315980
1.266533
1.322220
1.334727
1.174752
1.318530
1.318277
1.314042
1.224356
1.220601
1.182232
1.129176
1.088435
1.092379
1.133872
1.178246
1.132649
1.001712
1.178507
1.060232
1.242681
1.123424
1.220371
1.278903
1.178931
1.072345
1.082844
1.131064
0.995380
1.152922
1.221410
0.964411
0.952043
1.034857
0.893055
0.874692
1.009620
1.036394
0.822562
1.034191
1.081814
0.739405
0.727541
0.707049
0.712024
0.707605
0.749908
0.948639
0.792283
0.791084
0.873791
0.957459
0.922317
1.087882
0.972052
0.869936
1.068595
0.804890
0.783543
1.064272
1.245917
1.150435
1.195034
1.149777
1.062156
1.223385
1.265949
1.274253
1.334029
1.340571
1.334078
1.364889
1.357323
1.409589
1.406716
1.316069
1.249912
1.179356
1.425168
1.159016
1.251462
1.249055
1.280585
1.216492
1.381439
1.074070
1.421572
1.374092
0.926718
0.843103
0.687031
0.685335
0.724501
0.619826
0.861053
0.761309
0.655874
0.629434
0.698389
0.990242
1.112111
0.879983
0.772367
0.752791
0.843734
0.835629
0.850062
0.911692
0.960103
0.952203
0.899597
1.009050
1.038655
1.075962
0.924719
0.875707
0.897330
0.919822
0.891705
0.958288
0.855418
0.895276
0.891180
0.946977
0.830442
0.987916
0.958715
0.838446
0.757351
1.026082
0.850254
0.912986
0.791698
0.995383
0.775288
0.723579
0.794248
0.843156
0.756232
0.731333
0.752749
0.716269
0.682661
0.811273
0.694879
0.655501
0.644581
0.669602
0.692353
0.773125
0.699241
0.743185
0.772724
0.749655
0.806236
0.734698
0.851385
0.802811
0.809389
0.768319
0.721490
0.707418
0.877548
0.843983
0.860868
1.153890
1.127509
1.181217
1.094928
0.893980
0.837846
0.776290
0.851914
0.748991
0.874690
0.785250
0.719397
0.811186
0.781145
0.842432
0.838130
0.755290
0.847796
0.724303
0.775448
0.827204
0.628338
0.674140
0.681318
0.604362
0.497636
0.538725
1.158404
1.102969
1.199408
1.116004
1.064203
0.992844
1.049780
1.026369
1.089711
1.152982
1.141906
1.185716
1.230959
1.187495
1.275804
1.213615
1.250277
1.134582
1.078472
0.995698
1.143166
1.287679
1.294307
1.325950
1.282222
1.234844
0.757571
0.888801
0.758945
0.797187
0.687614
0.872676
0.999788
0.833027
0.675693
1.071343
1.025691
0.819117
1.190746
0.950373
0.879529
0.744406
0.770892
0.664810
0.698815
0.884003
0.995608
1.130798
1.202810
0.676798